n -t 0 -s 0 -S DLABEL -l "D" -L ""
n -t 0 -s 1 -S DLABEL -l "C" -L ""
n -t 0 -s 2 -S DLABEL -l "A" -L ""
n -t 0 -s 3 -S DLABEL -l "B" -L ""
V -t * -v 1.0a5 -a 0
A -t * -n 1 -p 0 -o 0x7fffffff -c 30 -a 1
A -t * -h 1 -m 1073741823 -s 0
n -t * -a 0 -s 0 -S UP -v circle -c black -i black
n -t * -a 1 -s 1 -S UP -v circle -c black -i black
n -t * -a 2 -s 2 -S UP -v circle -c black -i black
n -t * -a 3 -s 3 -S UP -v circle -c black -i black
l -t * -s 0 -d 1 -S UP -r 10000000 -D 0.02 -c black -o right
l -t * -s 0 -d 2 -S UP -r 10000000 -D 0.02 -c black -o down
l -t * -s 1 -d 3 -S UP -r 10000000 -D 0.02 -c black -o down
l -t * -s 3 -d 2 -S UP -r 10000000 -D 0.02 -c black -o left
l -t * -s 0 -d 3 -S UP -r 10000000 -D 0.02 -c black -o right-down
+ -t 0 -s 0 -d 3 -p tcp -e 40 -c 0 -i 0 -a 0 -x {0.0 3.0 0 ------- null}
- -t 0 -s 0 -d 3 -p tcp -e 40 -c 0 -i 0 -a 0 -x {0.0 3.0 0 ------- null}
h -t 0 -s 0 -d 3 -p tcp -e 40 -c 0 -i 0 -a 0 -x {0.0 3.0 -1 ------- null}
+ -t 0 -s 2 -d 3 -p cbr -e 210 -c 0 -i 1 -a 0 -x {2.0 3.1 0 ------- null}
- -t 0 -s 2 -d 3 -p cbr -e 210 -c 0 -i 1 -a 0 -x {2.0 3.1 0 ------- null}
h -t 0 -s 2 -d 3 -p cbr -e 210 -c 0 -i 1 -a 0 -x {2.0 3.1 -1 ------- null}
+ -t 0.000169788487334637 -s 0 -d 1 -p rtProtoLS -e 100 -c 0 -i 2 -a 0 -x {0.2 1.1 -1 ------- null}
- -t 0.000169788487334637 -s 0 -d 1 -p rtProtoLS -e 100 -c 0 -i 2 -a 0 -x {0.2 1.1 -1 ------- null}
h -t 0.000169788487334637 -s 0 -d 1 -p rtProtoLS -e 100 -c 0 -i 2 -a 0 -x {0.2 1.1 -1 ------- null}
+ -t 0.000169788487334637 -s 0 -d 2 -p rtProtoLS -e 100 -c 0 -i 3 -a 0 -x {0.2 2.2 -1 ------- null}
- -t 0.000169788487334637 -s 0 -d 2 -p rtProtoLS -e 100 -c 0 -i 3 -a 0 -x {0.2 2.2 -1 ------- null}
h -t 0.000169788487334637 -s 0 -d 2 -p rtProtoLS -e 100 -c 0 -i 3 -a 0 -x {0.2 2.2 -1 ------- null}
+ -t 0.000169788487334637 -s 0 -d 3 -p rtProtoLS -e 100 -c 0 -i 4 -a 0 -x {0.2 3.3 -1 ------- null}
- -t 0.000169788487334637 -s 0 -d 3 -p rtProtoLS -e 100 -c 0 -i 4 -a 0 -x {0.2 3.3 -1 ------- null}
h -t 0.000169788487334637 -s 0 -d 3 -p rtProtoLS -e 100 -c 0 -i 4 -a 0 -x {0.2 3.3 -1 ------- null}
+ -t 0.00375 -s 2 -d 3 -p cbr -e 210 -c 0 -i 5 -a 0 -x {2.0 3.1 1 ------- null}
- -t 0.00375 -s 2 -d 3 -p cbr -e 210 -c 0 -i 5 -a 0 -x {2.0 3.1 1 ------- null}
h -t 0.00375 -s 2 -d 3 -p cbr -e 210 -c 0 -i 5 -a 0 -x {2.0 3.1 -1 ------- null}
+ -t 0.00710233021858257 -s 2 -d 0 -p rtProtoLS -e 100 -c 0 -i 6 -a 0 -x {2.2 0.2 -1 ------- null}
- -t 0.00710233021858257 -s 2 -d 0 -p rtProtoLS -e 100 -c 0 -i 6 -a 0 -x {2.2 0.2 -1 ------- null}
h -t 0.00710233021858257 -s 2 -d 0 -p rtProtoLS -e 100 -c 0 -i 6 -a 0 -x {2.2 0.2 -1 ------- null}
+ -t 0.00710233021858257 -s 2 -d 3 -p rtProtoLS -e 100 -c 0 -i 7 -a 0 -x {2.2 3.3 -1 ------- null}
- -t 0.00710233021858257 -s 2 -d 3 -p rtProtoLS -e 100 -c 0 -i 7 -a 0 -x {2.2 3.3 -1 ------- null}
h -t 0.00710233021858257 -s 2 -d 3 -p rtProtoLS -e 100 -c 0 -i 7 -a 0 -x {2.2 3.3 -1 ------- null}
+ -t 0.0075 -s 2 -d 3 -p cbr -e 210 -c 0 -i 8 -a 0 -x {2.0 3.1 2 ------- null}
- -t 0.0075 -s 2 -d 3 -p cbr -e 210 -c 0 -i 8 -a 0 -x {2.0 3.1 2 ------- null}
h -t 0.0075 -s 2 -d 3 -p cbr -e 210 -c 0 -i 8 -a 0 -x {2.0 3.1 -1 ------- null}
+ -t 0.01125 -s 2 -d 3 -p cbr -e 210 -c 0 -i 9 -a 0 -x {2.0 3.1 3 ------- null}
- -t 0.01125 -s 2 -d 3 -p cbr -e 210 -c 0 -i 9 -a 0 -x {2.0 3.1 3 ------- null}
h -t 0.01125 -s 2 -d 3 -p cbr -e 210 -c 0 -i 9 -a 0 -x {2.0 3.1 -1 ------- null}
+ -t 0.015 -s 2 -d 3 -p cbr -e 210 -c 0 -i 10 -a 0 -x {2.0 3.1 4 ------- null}
- -t 0.015 -s 2 -d 3 -p cbr -e 210 -c 0 -i 10 -a 0 -x {2.0 3.1 4 ------- null}
h -t 0.015 -s 2 -d 3 -p cbr -e 210 -c 0 -i 10 -a 0 -x {2.0 3.1 -1 ------- null}
+ -t 0.01875 -s 2 -d 3 -p cbr -e 210 -c 0 -i 11 -a 0 -x {2.0 3.1 5 ------- null}
- -t 0.01875 -s 2 -d 3 -p cbr -e 210 -c 0 -i 11 -a 0 -x {2.0 3.1 5 ------- null}
h -t 0.01875 -s 2 -d 3 -p cbr -e 210 -c 0 -i 11 -a 0 -x {2.0 3.1 -1 ------- null}
r -t 0.020032 -s 0 -d 3 -p tcp -e 40 -c 0 -i 0 -a 0 -x {0.0 3.0 0 ------- null}
+ -t 0.020032 -s 3 -d 0 -p ack -e 40 -c 0 -i 12 -a 0 -x {3.0 0.0 0 ------- null}
- -t 0.020032 -s 3 -d 0 -p ack -e 40 -c 0 -i 12 -a 0 -x {3.0 0.0 0 ------- null}
h -t 0.020032 -s 3 -d 0 -p ack -e 40 -c 0 -i 12 -a 0 -x {3.0 0.0 -1 ------- null}
r -t 0.020168 -s 2 -d 3 -p cbr -e 210 -c 0 -i 1 -a 0 -x {2.0 3.1 0 ------- null}
r -t 0.0202497884873346 -s 0 -d 1 -p rtProtoLS -e 100 -c 0 -i 2 -a 0 -x {0.2 1.1 -1 ------- null}
+ -t 0.0202497884873346 -s 1 -d 0 -p rtProtoLS -e 20 -c 0 -i 13 -a 0 -x {1.1 0.2 -1 ------- null}
- -t 0.0202497884873346 -s 1 -d 0 -p rtProtoLS -e 20 -c 0 -i 13 -a 0 -x {1.1 0.2 -1 ------- null}
h -t 0.0202497884873346 -s 1 -d 0 -p rtProtoLS -e 20 -c 0 -i 13 -a 0 -x {1.1 0.2 -1 ------- null}
+ -t 0.0202497884873346 -s 1 -d 3 -p rtProtoLS -e 100 -c 0 -i 14 -a 0 -x {1.1 3.3 -1 ------- null}
- -t 0.0202497884873346 -s 1 -d 3 -p rtProtoLS -e 100 -c 0 -i 14 -a 0 -x {1.1 3.3 -1 ------- null}
h -t 0.0202497884873346 -s 1 -d 3 -p rtProtoLS -e 100 -c 0 -i 14 -a 0 -x {1.1 3.3 -1 ------- null}
r -t 0.0202497884873346 -s 0 -d 2 -p rtProtoLS -e 100 -c 0 -i 3 -a 0 -x {0.2 2.2 -1 ------- null}
+ -t 0.0202497884873346 -s 2 -d 0 -p rtProtoLS -e 20 -c 0 -i 15 -a 0 -x {2.2 0.2 -1 ------- null}
- -t 0.0202497884873346 -s 2 -d 0 -p rtProtoLS -e 20 -c 0 -i 15 -a 0 -x {2.2 0.2 -1 ------- null}
h -t 0.0202497884873346 -s 2 -d 0 -p rtProtoLS -e 20 -c 0 -i 15 -a 0 -x {2.2 0.2 -1 ------- null}
+ -t 0.0202497884873346 -s 2 -d 3 -p rtProtoLS -e 100 -c 0 -i 16 -a 0 -x {2.2 3.3 -1 ------- null}
- -t 0.0202497884873346 -s 2 -d 3 -p rtProtoLS -e 100 -c 0 -i 16 -a 0 -x {2.2 3.3 -1 ------- null}
h -t 0.0202497884873346 -s 2 -d 3 -p rtProtoLS -e 100 -c 0 -i 16 -a 0 -x {2.2 3.3 -1 ------- null}
r -t 0.0202497884873346 -s 0 -d 3 -p rtProtoLS -e 100 -c 0 -i 4 -a 0 -x {0.2 3.3 -1 ------- null}
+ -t 0.0202497884873346 -s 3 -d 0 -p rtProtoLS -e 20 -c 0 -i 17 -a 0 -x {3.3 0.2 -1 ------- null}
- -t 0.0202497884873346 -s 3 -d 0 -p rtProtoLS -e 20 -c 0 -i 17 -a 0 -x {3.3 0.2 -1 ------- null}
h -t 0.0202497884873346 -s 3 -d 0 -p rtProtoLS -e 20 -c 0 -i 17 -a 0 -x {3.3 0.2 -1 ------- null}
+ -t 0.0202497884873346 -s 3 -d 1 -p rtProtoLS -e 100 -c 0 -i 18 -a 0 -x {3.3 1.1 -1 ------- null}
- -t 0.0202497884873346 -s 3 -d 1 -p rtProtoLS -e 100 -c 0 -i 18 -a 0 -x {3.3 1.1 -1 ------- null}
h -t 0.0202497884873346 -s 3 -d 1 -p rtProtoLS -e 100 -c 0 -i 18 -a 0 -x {3.3 1.1 -1 ------- null}
+ -t 0.0202497884873346 -s 3 -d 2 -p rtProtoLS -e 100 -c 0 -i 19 -a 0 -x {3.3 2.2 -1 ------- null}
- -t 0.0202497884873346 -s 3 -d 2 -p rtProtoLS -e 100 -c 0 -i 19 -a 0 -x {3.3 2.2 -1 ------- null}
h -t 0.0202497884873346 -s 3 -d 2 -p rtProtoLS -e 100 -c 0 -i 19 -a 0 -x {3.3 2.2 -1 ------- null}
+ -t 0.0225 -s 2 -d 3 -p cbr -e 210 -c 0 -i 20 -a 0 -x {2.0 3.1 6 ------- null}
- -t 0.0225 -s 2 -d 3 -p cbr -e 210 -c 0 -i 20 -a 0 -x {2.0 3.1 6 ------- null}
h -t 0.0225 -s 2 -d 3 -p cbr -e 210 -c 0 -i 20 -a 0 -x {2.0 3.1 -1 ------- null}
r -t 0.023918 -s 2 -d 3 -p cbr -e 210 -c 0 -i 5 -a 0 -x {2.0 3.1 1 ------- null}
+ -t 0.02625 -s 2 -d 3 -p cbr -e 210 -c 0 -i 21 -a 0 -x {2.0 3.1 7 ------- null}
- -t 0.02625 -s 2 -d 3 -p cbr -e 210 -c 0 -i 21 -a 0 -x {2.0 3.1 7 ------- null}
h -t 0.02625 -s 2 -d 3 -p cbr -e 210 -c 0 -i 21 -a 0 -x {2.0 3.1 -1 ------- null}
r -t 0.0271823302185826 -s 2 -d 0 -p rtProtoLS -e 100 -c 0 -i 6 -a 0 -x {2.2 0.2 -1 ------- null}
+ -t 0.0271823302185826 -s 0 -d 2 -p rtProtoLS -e 20 -c 0 -i 22 -a 0 -x {0.2 2.2 -1 ------- null}
- -t 0.0271823302185826 -s 0 -d 2 -p rtProtoLS -e 20 -c 0 -i 22 -a 0 -x {0.2 2.2 -1 ------- null}
h -t 0.0271823302185826 -s 0 -d 2 -p rtProtoLS -e 20 -c 0 -i 22 -a 0 -x {0.2 2.2 -1 ------- null}
+ -t 0.0271823302185826 -s 0 -d 1 -p rtProtoLS -e 100 -c 0 -i 23 -a 0 -x {0.2 1.1 -1 ------- null}
- -t 0.0271823302185826 -s 0 -d 1 -p rtProtoLS -e 100 -c 0 -i 23 -a 0 -x {0.2 1.1 -1 ------- null}
h -t 0.0271823302185826 -s 0 -d 1 -p rtProtoLS -e 100 -c 0 -i 23 -a 0 -x {0.2 1.1 -1 ------- null}
+ -t 0.0271823302185826 -s 0 -d 3 -p rtProtoLS -e 100 -c 0 -i 24 -a 0 -x {0.2 3.3 -1 ------- null}
- -t 0.0271823302185826 -s 0 -d 3 -p rtProtoLS -e 100 -c 0 -i 24 -a 0 -x {0.2 3.3 -1 ------- null}
h -t 0.0271823302185826 -s 0 -d 3 -p rtProtoLS -e 100 -c 0 -i 24 -a 0 -x {0.2 3.3 -1 ------- null}
r -t 0.0271823302185826 -s 2 -d 3 -p rtProtoLS -e 100 -c 0 -i 7 -a 0 -x {2.2 3.3 -1 ------- null}
+ -t 0.0271823302185826 -s 3 -d 2 -p rtProtoLS -e 20 -c 0 -i 25 -a 0 -x {3.3 2.2 -1 ------- null}
- -t 0.0271823302185826 -s 3 -d 2 -p rtProtoLS -e 20 -c 0 -i 25 -a 0 -x {3.3 2.2 -1 ------- null}
h -t 0.0271823302185826 -s 3 -d 2 -p rtProtoLS -e 20 -c 0 -i 25 -a 0 -x {3.3 2.2 -1 ------- null}
+ -t 0.0271823302185826 -s 3 -d 0 -p rtProtoLS -e 100 -c 0 -i 26 -a 0 -x {3.3 0.2 -1 ------- null}
- -t 0.0271823302185826 -s 3 -d 0 -p rtProtoLS -e 100 -c 0 -i 26 -a 0 -x {3.3 0.2 -1 ------- null}
h -t 0.0271823302185826 -s 3 -d 0 -p rtProtoLS -e 100 -c 0 -i 26 -a 0 -x {3.3 0.2 -1 ------- null}
+ -t 0.0271823302185826 -s 3 -d 1 -p rtProtoLS -e 100 -c 0 -i 27 -a 0 -x {3.3 1.1 -1 ------- null}
- -t 0.0271823302185826 -s 3 -d 1 -p rtProtoLS -e 100 -c 0 -i 27 -a 0 -x {3.3 1.1 -1 ------- null}
h -t 0.0271823302185826 -s 3 -d 1 -p rtProtoLS -e 100 -c 0 -i 27 -a 0 -x {3.3 1.1 -1 ------- null}
r -t 0.027668 -s 2 -d 3 -p cbr -e 210 -c 0 -i 8 -a 0 -x {2.0 3.1 2 ------- null}
+ -t 0.03 -s 2 -d 3 -p cbr -e 210 -c 0 -i 28 -a 0 -x {2.0 3.1 8 ------- null}
- -t 0.03 -s 2 -d 3 -p cbr -e 210 -c 0 -i 28 -a 0 -x {2.0 3.1 8 ------- null}
h -t 0.03 -s 2 -d 3 -p cbr -e 210 -c 0 -i 28 -a 0 -x {2.0 3.1 -1 ------- null}
r -t 0.031418 -s 2 -d 3 -p cbr -e 210 -c 0 -i 9 -a 0 -x {2.0 3.1 3 ------- null}
+ -t 0.03375 -s 2 -d 3 -p cbr -e 210 -c 0 -i 29 -a 0 -x {2.0 3.1 9 ------- null}
- -t 0.03375 -s 2 -d 3 -p cbr -e 210 -c 0 -i 29 -a 0 -x {2.0 3.1 9 ------- null}
h -t 0.03375 -s 2 -d 3 -p cbr -e 210 -c 0 -i 29 -a 0 -x {2.0 3.1 -1 ------- null}
r -t 0.035168 -s 2 -d 3 -p cbr -e 210 -c 0 -i 10 -a 0 -x {2.0 3.1 4 ------- null}
+ -t 0.0375 -s 2 -d 3 -p cbr -e 210 -c 0 -i 30 -a 0 -x {2.0 3.1 10 ------- null}
- -t 0.0375 -s 2 -d 3 -p cbr -e 210 -c 0 -i 30 -a 0 -x {2.0 3.1 10 ------- null}
h -t 0.0375 -s 2 -d 3 -p cbr -e 210 -c 0 -i 30 -a 0 -x {2.0 3.1 -1 ------- null}
r -t 0.038918 -s 2 -d 3 -p cbr -e 210 -c 0 -i 11 -a 0 -x {2.0 3.1 5 ------- null}
r -t 0.040064 -s 3 -d 0 -p ack -e 40 -c 0 -i 12 -a 0 -x {3.0 0.0 0 ------- null}
+ -t 0.040064 -s 0 -d 3 -p tcp -e 1040 -c 0 -i 31 -a 0 -x {0.0 3.0 1 ------- null}
- -t 0.040064 -s 0 -d 3 -p tcp -e 1040 -c 0 -i 31 -a 0 -x {0.0 3.0 1 ------- null}
h -t 0.040064 -s 0 -d 3 -p tcp -e 1040 -c 0 -i 31 -a 0 -x {0.0 3.0 -1 ------- null}
+ -t 0.040064 -s 0 -d 3 -p tcp -e 1040 -c 0 -i 32 -a 0 -x {0.0 3.0 2 ------- null}
r -t 0.0402657884873346 -s 1 -d 0 -p rtProtoLS -e 20 -c 0 -i 13 -a 0 -x {1.1 0.2 -1 ------- null}
r -t 0.0402657884873346 -s 2 -d 0 -p rtProtoLS -e 20 -c 0 -i 15 -a 0 -x {2.2 0.2 -1 ------- null}
r -t 0.0402657884873346 -s 3 -d 0 -p rtProtoLS -e 20 -c 0 -i 17 -a 0 -x {3.3 0.2 -1 ------- null}
r -t 0.0403297884873346 -s 1 -d 3 -p rtProtoLS -e 100 -c 0 -i 14 -a 0 -x {1.1 3.3 -1 ------- null}
+ -t 0.0403297884873346 -s 3 -d 1 -p rtProtoLS -e 20 -c 0 -i 33 -a 0 -x {3.3 1.1 -1 ------- null}
- -t 0.0403297884873346 -s 3 -d 1 -p rtProtoLS -e 20 -c 0 -i 33 -a 0 -x {3.3 1.1 -1 ------- null}
h -t 0.0403297884873346 -s 3 -d 1 -p rtProtoLS -e 20 -c 0 -i 33 -a 0 -x {3.3 1.1 -1 ------- null}
r -t 0.0403297884873346 -s 2 -d 3 -p rtProtoLS -e 100 -c 0 -i 16 -a 0 -x {2.2 3.3 -1 ------- null}
+ -t 0.0403297884873346 -s 3 -d 2 -p rtProtoLS -e 20 -c 0 -i 34 -a 0 -x {3.3 2.2 -1 ------- null}
- -t 0.0403297884873346 -s 3 -d 2 -p rtProtoLS -e 20 -c 0 -i 34 -a 0 -x {3.3 2.2 -1 ------- null}
h -t 0.0403297884873346 -s 3 -d 2 -p rtProtoLS -e 20 -c 0 -i 34 -a 0 -x {3.3 2.2 -1 ------- null}
r -t 0.0403297884873346 -s 3 -d 1 -p rtProtoLS -e 100 -c 0 -i 18 -a 0 -x {3.3 1.1 -1 ------- null}
+ -t 0.0403297884873346 -s 1 -d 3 -p rtProtoLS -e 20 -c 0 -i 35 -a 0 -x {1.1 3.3 -1 ------- null}
- -t 0.0403297884873346 -s 1 -d 3 -p rtProtoLS -e 20 -c 0 -i 35 -a 0 -x {1.1 3.3 -1 ------- null}
h -t 0.0403297884873346 -s 1 -d 3 -p rtProtoLS -e 20 -c 0 -i 35 -a 0 -x {1.1 3.3 -1 ------- null}
r -t 0.0403297884873346 -s 3 -d 2 -p rtProtoLS -e 100 -c 0 -i 19 -a 0 -x {3.3 2.2 -1 ------- null}
+ -t 0.0403297884873346 -s 2 -d 3 -p rtProtoLS -e 20 -c 0 -i 36 -a 0 -x {2.2 3.3 -1 ------- null}
- -t 0.0403297884873346 -s 2 -d 3 -p rtProtoLS -e 20 -c 0 -i 36 -a 0 -x {2.2 3.3 -1 ------- null}
h -t 0.0403297884873346 -s 2 -d 3 -p rtProtoLS -e 20 -c 0 -i 36 -a 0 -x {2.2 3.3 -1 ------- null}
- -t 0.040896 -s 0 -d 3 -p tcp -e 1040 -c 0 -i 32 -a 0 -x {0.0 3.0 2 ------- null}
h -t 0.040896 -s 0 -d 3 -p tcp -e 1040 -c 0 -i 32 -a 0 -x {0.0 3.0 -1 ------- null}
+ -t 0.04125 -s 2 -d 3 -p cbr -e 210 -c 0 -i 37 -a 0 -x {2.0 3.1 11 ------- null}
- -t 0.04125 -s 2 -d 3 -p cbr -e 210 -c 0 -i 37 -a 0 -x {2.0 3.1 11 ------- null}
h -t 0.04125 -s 2 -d 3 -p cbr -e 210 -c 0 -i 37 -a 0 -x {2.0 3.1 -1 ------- null}
r -t 0.042668 -s 2 -d 3 -p cbr -e 210 -c 0 -i 20 -a 0 -x {2.0 3.1 6 ------- null}
+ -t 0.04406133552271 -s 3 -d 0 -p rtProtoLS -e 100 -c 0 -i 38 -a 0 -x {3.3 0.2 -1 ------- null}
- -t 0.04406133552271 -s 3 -d 0 -p rtProtoLS -e 100 -c 0 -i 38 -a 0 -x {3.3 0.2 -1 ------- null}
h -t 0.04406133552271 -s 3 -d 0 -p rtProtoLS -e 100 -c 0 -i 38 -a 0 -x {3.3 0.2 -1 ------- null}
+ -t 0.04406133552271 -s 3 -d 1 -p rtProtoLS -e 100 -c 0 -i 39 -a 0 -x {3.3 1.1 -1 ------- null}
- -t 0.04406133552271 -s 3 -d 1 -p rtProtoLS -e 100 -c 0 -i 39 -a 0 -x {3.3 1.1 -1 ------- null}
h -t 0.04406133552271 -s 3 -d 1 -p rtProtoLS -e 100 -c 0 -i 39 -a 0 -x {3.3 1.1 -1 ------- null}
+ -t 0.04406133552271 -s 3 -d 2 -p rtProtoLS -e 100 -c 0 -i 40 -a 0 -x {3.3 2.2 -1 ------- null}
- -t 0.04406133552271 -s 3 -d 2 -p rtProtoLS -e 100 -c 0 -i 40 -a 0 -x {3.3 2.2 -1 ------- null}
h -t 0.04406133552271 -s 3 -d 2 -p rtProtoLS -e 100 -c 0 -i 40 -a 0 -x {3.3 2.2 -1 ------- null}
+ -t 0.045 -s 2 -d 3 -p cbr -e 210 -c 0 -i 41 -a 0 -x {2.0 3.1 12 ------- null}
- -t 0.045 -s 2 -d 3 -p cbr -e 210 -c 0 -i 41 -a 0 -x {2.0 3.1 12 ------- null}
h -t 0.045 -s 2 -d 3 -p cbr -e 210 -c 0 -i 41 -a 0 -x {2.0 3.1 -1 ------- null}
r -t 0.046418 -s 2 -d 3 -p cbr -e 210 -c 0 -i 21 -a 0 -x {2.0 3.1 7 ------- null}
r -t 0.0471983302185826 -s 0 -d 2 -p rtProtoLS -e 20 -c 0 -i 22 -a 0 -x {0.2 2.2 -1 ------- null}
r -t 0.0471983302185826 -s 3 -d 2 -p rtProtoLS -e 20 -c 0 -i 25 -a 0 -x {3.3 2.2 -1 ------- null}
r -t 0.0472623302185826 -s 0 -d 1 -p rtProtoLS -e 100 -c 0 -i 23 -a 0 -x {0.2 1.1 -1 ------- null}
+ -t 0.0472623302185826 -s 1 -d 0 -p rtProtoLS -e 20 -c 0 -i 42 -a 0 -x {1.1 0.2 -1 ------- null}
- -t 0.0472623302185826 -s 1 -d 0 -p rtProtoLS -e 20 -c 0 -i 42 -a 0 -x {1.1 0.2 -1 ------- null}
h -t 0.0472623302185826 -s 1 -d 0 -p rtProtoLS -e 20 -c 0 -i 42 -a 0 -x {1.1 0.2 -1 ------- null}
+ -t 0.0472623302185826 -s 1 -d 3 -p rtProtoLS -e 100 -c 0 -i 43 -a 0 -x {1.1 3.3 -1 ------- null}
- -t 0.0472623302185826 -s 1 -d 3 -p rtProtoLS -e 100 -c 0 -i 43 -a 0 -x {1.1 3.3 -1 ------- null}
h -t 0.0472623302185826 -s 1 -d 3 -p rtProtoLS -e 100 -c 0 -i 43 -a 0 -x {1.1 3.3 -1 ------- null}
r -t 0.0472623302185826 -s 0 -d 3 -p rtProtoLS -e 100 -c 0 -i 24 -a 0 -x {0.2 3.3 -1 ------- null}
+ -t 0.0472623302185826 -s 3 -d 0 -p rtProtoLS -e 20 -c 0 -i 44 -a 0 -x {3.3 0.2 -1 ------- null}
- -t 0.0472623302185826 -s 3 -d 0 -p rtProtoLS -e 20 -c 0 -i 44 -a 0 -x {3.3 0.2 -1 ------- null}
h -t 0.0472623302185826 -s 3 -d 0 -p rtProtoLS -e 20 -c 0 -i 44 -a 0 -x {3.3 0.2 -1 ------- null}
r -t 0.0472623302185826 -s 3 -d 0 -p rtProtoLS -e 100 -c 0 -i 26 -a 0 -x {3.3 0.2 -1 ------- null}
+ -t 0.0472623302185826 -s 0 -d 3 -p rtProtoLS -e 20 -c 0 -i 45 -a 0 -x {0.2 3.3 -1 ------- null}
- -t 0.0472623302185826 -s 0 -d 3 -p rtProtoLS -e 20 -c 0 -i 45 -a 0 -x {0.2 3.3 -1 ------- null}
h -t 0.0472623302185826 -s 0 -d 3 -p rtProtoLS -e 20 -c 0 -i 45 -a 0 -x {0.2 3.3 -1 ------- null}
r -t 0.0472623302185826 -s 3 -d 1 -p rtProtoLS -e 100 -c 0 -i 27 -a 0 -x {3.3 1.1 -1 ------- null}
+ -t 0.0472623302185826 -s 1 -d 3 -p rtProtoLS -e 20 -c 0 -i 46 -a 0 -x {1.1 3.3 -1 ------- null}
- -t 0.0473423302185826 -s 1 -d 3 -p rtProtoLS -e 20 -c 0 -i 46 -a 0 -x {1.1 3.3 -1 ------- null}
h -t 0.0473423302185826 -s 1 -d 3 -p rtProtoLS -e 20 -c 0 -i 46 -a 0 -x {1.1 3.3 -1 ------- null}
+ -t 0.04875 -s 2 -d 3 -p cbr -e 210 -c 0 -i 47 -a 0 -x {2.0 3.1 13 ------- null}
- -t 0.04875 -s 2 -d 3 -p cbr -e 210 -c 0 -i 47 -a 0 -x {2.0 3.1 13 ------- null}
h -t 0.04875 -s 2 -d 3 -p cbr -e 210 -c 0 -i 47 -a 0 -x {2.0 3.1 -1 ------- null}
r -t 0.050168 -s 2 -d 3 -p cbr -e 210 -c 0 -i 28 -a 0 -x {2.0 3.1 8 ------- null}
+ -t 0.0525 -s 2 -d 3 -p cbr -e 210 -c 0 -i 48 -a 0 -x {2.0 3.1 14 ------- null}
- -t 0.0525 -s 2 -d 3 -p cbr -e 210 -c 0 -i 48 -a 0 -x {2.0 3.1 14 ------- null}
h -t 0.0525 -s 2 -d 3 -p cbr -e 210 -c 0 -i 48 -a 0 -x {2.0 3.1 -1 ------- null}
r -t 0.053918 -s 2 -d 3 -p cbr -e 210 -c 0 -i 29 -a 0 -x {2.0 3.1 9 ------- null}
+ -t 0.05625 -s 2 -d 3 -p cbr -e 210 -c 0 -i 49 -a 0 -x {2.0 3.1 15 ------- null}
- -t 0.05625 -s 2 -d 3 -p cbr -e 210 -c 0 -i 49 -a 0 -x {2.0 3.1 15 ------- null}
h -t 0.05625 -s 2 -d 3 -p cbr -e 210 -c 0 -i 49 -a 0 -x {2.0 3.1 -1 ------- null}
r -t 0.057668 -s 2 -d 3 -p cbr -e 210 -c 0 -i 30 -a 0 -x {2.0 3.1 10 ------- null}
+ -t 0.06 -s 2 -d 3 -p cbr -e 210 -c 0 -i 50 -a 0 -x {2.0 3.1 16 ------- null}
- -t 0.06 -s 2 -d 3 -p cbr -e 210 -c 0 -i 50 -a 0 -x {2.0 3.1 16 ------- null}
h -t 0.06 -s 2 -d 3 -p cbr -e 210 -c 0 -i 50 -a 0 -x {2.0 3.1 -1 ------- null}
r -t 0.0603457884873346 -s 3 -d 1 -p rtProtoLS -e 20 -c 0 -i 33 -a 0 -x {3.3 1.1 -1 ------- null}
r -t 0.0603457884873346 -s 3 -d 2 -p rtProtoLS -e 20 -c 0 -i 34 -a 0 -x {3.3 2.2 -1 ------- null}
r -t 0.0603457884873346 -s 1 -d 3 -p rtProtoLS -e 20 -c 0 -i 35 -a 0 -x {1.1 3.3 -1 ------- null}
r -t 0.0603457884873346 -s 2 -d 3 -p rtProtoLS -e 20 -c 0 -i 36 -a 0 -x {2.2 3.3 -1 ------- null}
r -t 0.060896 -s 0 -d 3 -p tcp -e 1040 -c 0 -i 31 -a 0 -x {0.0 3.0 1 ------- null}
+ -t 0.060896 -s 3 -d 0 -p ack -e 40 -c 0 -i 51 -a 0 -x {3.0 0.0 1 ------- null}
- -t 0.060896 -s 3 -d 0 -p ack -e 40 -c 0 -i 51 -a 0 -x {3.0 0.0 1 ------- null}
h -t 0.060896 -s 3 -d 0 -p ack -e 40 -c 0 -i 51 -a 0 -x {3.0 0.0 -1 ------- null}
r -t 0.061418 -s 2 -d 3 -p cbr -e 210 -c 0 -i 37 -a 0 -x {2.0 3.1 11 ------- null}
r -t 0.061728 -s 0 -d 3 -p tcp -e 1040 -c 0 -i 32 -a 0 -x {0.0 3.0 2 ------- null}
+ -t 0.061728 -s 3 -d 0 -p ack -e 40 -c 0 -i 52 -a 0 -x {3.0 0.0 2 ------- null}
- -t 0.061728 -s 3 -d 0 -p ack -e 40 -c 0 -i 52 -a 0 -x {3.0 0.0 2 ------- null}
h -t 0.061728 -s 3 -d 0 -p ack -e 40 -c 0 -i 52 -a 0 -x {3.0 0.0 -1 ------- null}
+ -t 0.06375 -s 2 -d 3 -p cbr -e 210 -c 0 -i 53 -a 0 -x {2.0 3.1 17 ------- null}
- -t 0.06375 -s 2 -d 3 -p cbr -e 210 -c 0 -i 53 -a 0 -x {2.0 3.1 17 ------- null}
h -t 0.06375 -s 2 -d 3 -p cbr -e 210 -c 0 -i 53 -a 0 -x {2.0 3.1 -1 ------- null}
r -t 0.06414133552271 -s 3 -d 0 -p rtProtoLS -e 100 -c 0 -i 38 -a 0 -x {3.3 0.2 -1 ------- null}
+ -t 0.06414133552271 -s 0 -d 3 -p rtProtoLS -e 20 -c 0 -i 54 -a 0 -x {0.2 3.3 -1 ------- null}
- -t 0.06414133552271 -s 0 -d 3 -p rtProtoLS -e 20 -c 0 -i 54 -a 0 -x {0.2 3.3 -1 ------- null}
h -t 0.06414133552271 -s 0 -d 3 -p rtProtoLS -e 20 -c 0 -i 54 -a 0 -x {0.2 3.3 -1 ------- null}
+ -t 0.06414133552271 -s 0 -d 1 -p rtProtoLS -e 100 -c 0 -i 55 -a 0 -x {0.2 1.1 -1 ------- null}
- -t 0.06414133552271 -s 0 -d 1 -p rtProtoLS -e 100 -c 0 -i 55 -a 0 -x {0.2 1.1 -1 ------- null}
h -t 0.06414133552271 -s 0 -d 1 -p rtProtoLS -e 100 -c 0 -i 55 -a 0 -x {0.2 1.1 -1 ------- null}
+ -t 0.06414133552271 -s 0 -d 2 -p rtProtoLS -e 100 -c 0 -i 56 -a 0 -x {0.2 2.2 -1 ------- null}
- -t 0.06414133552271 -s 0 -d 2 -p rtProtoLS -e 100 -c 0 -i 56 -a 0 -x {0.2 2.2 -1 ------- null}
h -t 0.06414133552271 -s 0 -d 2 -p rtProtoLS -e 100 -c 0 -i 56 -a 0 -x {0.2 2.2 -1 ------- null}
r -t 0.06414133552271 -s 3 -d 1 -p rtProtoLS -e 100 -c 0 -i 39 -a 0 -x {3.3 1.1 -1 ------- null}
+ -t 0.06414133552271 -s 1 -d 3 -p rtProtoLS -e 20 -c 0 -i 57 -a 0 -x {1.1 3.3 -1 ------- null}
- -t 0.06414133552271 -s 1 -d 3 -p rtProtoLS -e 20 -c 0 -i 57 -a 0 -x {1.1 3.3 -1 ------- null}
h -t 0.06414133552271 -s 1 -d 3 -p rtProtoLS -e 20 -c 0 -i 57 -a 0 -x {1.1 3.3 -1 ------- null}
+ -t 0.06414133552271 -s 1 -d 0 -p rtProtoLS -e 100 -c 0 -i 58 -a 0 -x {1.1 0.2 -1 ------- null}
- -t 0.06414133552271 -s 1 -d 0 -p rtProtoLS -e 100 -c 0 -i 58 -a 0 -x {1.1 0.2 -1 ------- null}
h -t 0.06414133552271 -s 1 -d 0 -p rtProtoLS -e 100 -c 0 -i 58 -a 0 -x {1.1 0.2 -1 ------- null}
r -t 0.06414133552271 -s 3 -d 2 -p rtProtoLS -e 100 -c 0 -i 40 -a 0 -x {3.3 2.2 -1 ------- null}
+ -t 0.06414133552271 -s 2 -d 3 -p rtProtoLS -e 20 -c 0 -i 59 -a 0 -x {2.2 3.3 -1 ------- null}
- -t 0.06414133552271 -s 2 -d 3 -p rtProtoLS -e 20 -c 0 -i 59 -a 0 -x {2.2 3.3 -1 ------- null}
h -t 0.06414133552271 -s 2 -d 3 -p rtProtoLS -e 20 -c 0 -i 59 -a 0 -x {2.2 3.3 -1 ------- null}
+ -t 0.06414133552271 -s 2 -d 0 -p rtProtoLS -e 100 -c 0 -i 60 -a 0 -x {2.2 0.2 -1 ------- null}
- -t 0.06414133552271 -s 2 -d 0 -p rtProtoLS -e 100 -c 0 -i 60 -a 0 -x {2.2 0.2 -1 ------- null}
h -t 0.06414133552271 -s 2 -d 0 -p rtProtoLS -e 100 -c 0 -i 60 -a 0 -x {2.2 0.2 -1 ------- null}
r -t 0.065168 -s 2 -d 3 -p cbr -e 210 -c 0 -i 41 -a 0 -x {2.0 3.1 12 ------- null}
r -t 0.0672783302185826 -s 1 -d 0 -p rtProtoLS -e 20 -c 0 -i 42 -a 0 -x {1.1 0.2 -1 ------- null}
r -t 0.0672783302185826 -s 3 -d 0 -p rtProtoLS -e 20 -c 0 -i 44 -a 0 -x {3.3 0.2 -1 ------- null}
r -t 0.0672783302185826 -s 0 -d 3 -p rtProtoLS -e 20 -c 0 -i 45 -a 0 -x {0.2 3.3 -1 ------- null}
r -t 0.0673423302185826 -s 1 -d 3 -p rtProtoLS -e 100 -c 0 -i 43 -a 0 -x {1.1 3.3 -1 ------- null}
+ -t 0.0673423302185826 -s 3 -d 1 -p rtProtoLS -e 20 -c 0 -i 61 -a 0 -x {3.3 1.1 -1 ------- null}
- -t 0.0673423302185826 -s 3 -d 1 -p rtProtoLS -e 20 -c 0 -i 61 -a 0 -x {3.3 1.1 -1 ------- null}
h -t 0.0673423302185826 -s 3 -d 1 -p rtProtoLS -e 20 -c 0 -i 61 -a 0 -x {3.3 1.1 -1 ------- null}
r -t 0.0673583302185826 -s 1 -d 3 -p rtProtoLS -e 20 -c 0 -i 46 -a 0 -x {1.1 3.3 -1 ------- null}
+ -t 0.0675 -s 2 -d 3 -p cbr -e 210 -c 0 -i 62 -a 0 -x {2.0 3.1 18 ------- null}
- -t 0.0675 -s 2 -d 3 -p cbr -e 210 -c 0 -i 62 -a 0 -x {2.0 3.1 18 ------- null}
h -t 0.0675 -s 2 -d 3 -p cbr -e 210 -c 0 -i 62 -a 0 -x {2.0 3.1 -1 ------- null}
r -t 0.068918 -s 2 -d 3 -p cbr -e 210 -c 0 -i 47 -a 0 -x {2.0 3.1 13 ------- null}
+ -t 0.07125 -s 2 -d 3 -p cbr -e 210 -c 0 -i 63 -a 0 -x {2.0 3.1 19 ------- null}
- -t 0.07125 -s 2 -d 3 -p cbr -e 210 -c 0 -i 63 -a 0 -x {2.0 3.1 19 ------- null}
h -t 0.07125 -s 2 -d 3 -p cbr -e 210 -c 0 -i 63 -a 0 -x {2.0 3.1 -1 ------- null}
r -t 0.072668 -s 2 -d 3 -p cbr -e 210 -c 0 -i 48 -a 0 -x {2.0 3.1 14 ------- null}
+ -t 0.075 -s 2 -d 3 -p cbr -e 210 -c 0 -i 64 -a 0 -x {2.0 3.1 20 ------- null}
- -t 0.075 -s 2 -d 3 -p cbr -e 210 -c 0 -i 64 -a 0 -x {2.0 3.1 20 ------- null}
h -t 0.075 -s 2 -d 3 -p cbr -e 210 -c 0 -i 64 -a 0 -x {2.0 3.1 -1 ------- null}
r -t 0.076418 -s 2 -d 3 -p cbr -e 210 -c 0 -i 49 -a 0 -x {2.0 3.1 15 ------- null}
+ -t 0.07875 -s 2 -d 3 -p cbr -e 210 -c 0 -i 65 -a 0 -x {2.0 3.1 21 ------- null}
- -t 0.07875 -s 2 -d 3 -p cbr -e 210 -c 0 -i 65 -a 0 -x {2.0 3.1 21 ------- null}
h -t 0.07875 -s 2 -d 3 -p cbr -e 210 -c 0 -i 65 -a 0 -x {2.0 3.1 -1 ------- null}
r -t 0.080168 -s 2 -d 3 -p cbr -e 210 -c 0 -i 50 -a 0 -x {2.0 3.1 16 ------- null}
r -t 0.080928 -s 3 -d 0 -p ack -e 40 -c 0 -i 51 -a 0 -x {3.0 0.0 1 ------- null}
+ -t 0.080928 -s 0 -d 3 -p tcp -e 1040 -c 0 -i 66 -a 0 -x {0.0 3.0 3 ------- null}
- -t 0.080928 -s 0 -d 3 -p tcp -e 1040 -c 0 -i 66 -a 0 -x {0.0 3.0 3 ------- null}
h -t 0.080928 -s 0 -d 3 -p tcp -e 1040 -c 0 -i 66 -a 0 -x {0.0 3.0 -1 ------- null}
+ -t 0.080928 -s 0 -d 3 -p tcp -e 1040 -c 0 -i 67 -a 0 -x {0.0 3.0 4 ------- null}
r -t 0.08176 -s 3 -d 0 -p ack -e 40 -c 0 -i 52 -a 0 -x {3.0 0.0 2 ------- null}
+ -t 0.08176 -s 0 -d 3 -p tcp -e 1040 -c 0 -i 68 -a 0 -x {0.0 3.0 5 ------- null}
+ -t 0.08176 -s 0 -d 3 -p tcp -e 1040 -c 0 -i 69 -a 0 -x {0.0 3.0 6 ------- null}
- -t 0.08176 -s 0 -d 3 -p tcp -e 1040 -c 0 -i 67 -a 0 -x {0.0 3.0 4 ------- null}
h -t 0.08176 -s 0 -d 3 -p tcp -e 1040 -c 0 -i 67 -a 0 -x {0.0 3.0 -1 ------- null}
+ -t 0.0825 -s 2 -d 3 -p cbr -e 210 -c 0 -i 70 -a 0 -x {2.0 3.1 22 ------- null}
- -t 0.0825 -s 2 -d 3 -p cbr -e 210 -c 0 -i 70 -a 0 -x {2.0 3.1 22 ------- null}
h -t 0.0825 -s 2 -d 3 -p cbr -e 210 -c 0 -i 70 -a 0 -x {2.0 3.1 -1 ------- null}
- -t 0.082592 -s 0 -d 3 -p tcp -e 1040 -c 0 -i 68 -a 0 -x {0.0 3.0 5 ------- null}
h -t 0.082592 -s 0 -d 3 -p tcp -e 1040 -c 0 -i 68 -a 0 -x {0.0 3.0 -1 ------- null}
- -t 0.083424 -s 0 -d 3 -p tcp -e 1040 -c 0 -i 69 -a 0 -x {0.0 3.0 6 ------- null}
h -t 0.083424 -s 0 -d 3 -p tcp -e 1040 -c 0 -i 69 -a 0 -x {0.0 3.0 -1 ------- null}
r -t 0.083918 -s 2 -d 3 -p cbr -e 210 -c 0 -i 53 -a 0 -x {2.0 3.1 17 ------- null}
r -t 0.08415733552271 -s 0 -d 3 -p rtProtoLS -e 20 -c 0 -i 54 -a 0 -x {0.2 3.3 -1 ------- null}
r -t 0.08415733552271 -s 1 -d 3 -p rtProtoLS -e 20 -c 0 -i 57 -a 0 -x {1.1 3.3 -1 ------- null}
r -t 0.08415733552271 -s 2 -d 3 -p rtProtoLS -e 20 -c 0 -i 59 -a 0 -x {2.2 3.3 -1 ------- null}
r -t 0.08422133552271 -s 0 -d 1 -p rtProtoLS -e 100 -c 0 -i 55 -a 0 -x {0.2 1.1 -1 ------- null}
+ -t 0.08422133552271 -s 1 -d 0 -p rtProtoLS -e 20 -c 0 -i 71 -a 0 -x {1.1 0.2 -1 ------- null}
- -t 0.08422133552271 -s 1 -d 0 -p rtProtoLS -e 20 -c 0 -i 71 -a 0 -x {1.1 0.2 -1 ------- null}
h -t 0.08422133552271 -s 1 -d 0 -p rtProtoLS -e 20 -c 0 -i 71 -a 0 -x {1.1 0.2 -1 ------- null}
r -t 0.08422133552271 -s 0 -d 2 -p rtProtoLS -e 100 -c 0 -i 56 -a 0 -x {0.2 2.2 -1 ------- null}
+ -t 0.08422133552271 -s 2 -d 0 -p rtProtoLS -e 20 -c 0 -i 72 -a 0 -x {2.2 0.2 -1 ------- null}
- -t 0.08422133552271 -s 2 -d 0 -p rtProtoLS -e 20 -c 0 -i 72 -a 0 -x {2.2 0.2 -1 ------- null}
h -t 0.08422133552271 -s 2 -d 0 -p rtProtoLS -e 20 -c 0 -i 72 -a 0 -x {2.2 0.2 -1 ------- null}
r -t 0.08422133552271 -s 1 -d 0 -p rtProtoLS -e 100 -c 0 -i 58 -a 0 -x {1.1 0.2 -1 ------- null}
+ -t 0.08422133552271 -s 0 -d 1 -p rtProtoLS -e 20 -c 0 -i 73 -a 0 -x {0.2 1.1 -1 ------- null}
- -t 0.08422133552271 -s 0 -d 1 -p rtProtoLS -e 20 -c 0 -i 73 -a 0 -x {0.2 1.1 -1 ------- null}
h -t 0.08422133552271 -s 0 -d 1 -p rtProtoLS -e 20 -c 0 -i 73 -a 0 -x {0.2 1.1 -1 ------- null}
r -t 0.08422133552271 -s 2 -d 0 -p rtProtoLS -e 100 -c 0 -i 60 -a 0 -x {2.2 0.2 -1 ------- null}
+ -t 0.08422133552271 -s 0 -d 2 -p rtProtoLS -e 20 -c 0 -i 74 -a 0 -x {0.2 2.2 -1 ------- null}
- -t 0.08422133552271 -s 0 -d 2 -p rtProtoLS -e 20 -c 0 -i 74 -a 0 -x {0.2 2.2 -1 ------- null}
h -t 0.08422133552271 -s 0 -d 2 -p rtProtoLS -e 20 -c 0 -i 74 -a 0 -x {0.2 2.2 -1 ------- null}
+ -t 0.08625 -s 2 -d 3 -p cbr -e 210 -c 0 -i 75 -a 0 -x {2.0 3.1 23 ------- null}
- -t 0.08625 -s 2 -d 3 -p cbr -e 210 -c 0 -i 75 -a 0 -x {2.0 3.1 23 ------- null}
h -t 0.08625 -s 2 -d 3 -p cbr -e 210 -c 0 -i 75 -a 0 -x {2.0 3.1 -1 ------- null}
r -t 0.0873583302185826 -s 3 -d 1 -p rtProtoLS -e 20 -c 0 -i 61 -a 0 -x {3.3 1.1 -1 ------- null}
r -t 0.087668 -s 2 -d 3 -p cbr -e 210 -c 0 -i 62 -a 0 -x {2.0 3.1 18 ------- null}
+ -t 0.0900000000000001 -s 2 -d 3 -p cbr -e 210 -c 0 -i 76 -a 0 -x {2.0 3.1 24 ------- null}
- -t 0.0900000000000001 -s 2 -d 3 -p cbr -e 210 -c 0 -i 76 -a 0 -x {2.0 3.1 24 ------- null}
h -t 0.0900000000000001 -s 2 -d 3 -p cbr -e 210 -c 0 -i 76 -a 0 -x {2.0 3.1 -1 ------- null}
r -t 0.091418 -s 2 -d 3 -p cbr -e 210 -c 0 -i 63 -a 0 -x {2.0 3.1 19 ------- null}
+ -t 0.0937500000000001 -s 2 -d 3 -p cbr -e 210 -c 0 -i 77 -a 0 -x {2.0 3.1 25 ------- null}
- -t 0.0937500000000001 -s 2 -d 3 -p cbr -e 210 -c 0 -i 77 -a 0 -x {2.0 3.1 25 ------- null}
h -t 0.0937500000000001 -s 2 -d 3 -p cbr -e 210 -c 0 -i 77 -a 0 -x {2.0 3.1 -1 ------- null}
r -t 0.095168 -s 2 -d 3 -p cbr -e 210 -c 0 -i 64 -a 0 -x {2.0 3.1 20 ------- null}
+ -t 0.0975000000000001 -s 2 -d 3 -p cbr -e 210 -c 0 -i 78 -a 0 -x {2.0 3.1 26 ------- null}
- -t 0.0975000000000001 -s 2 -d 3 -p cbr -e 210 -c 0 -i 78 -a 0 -x {2.0 3.1 26 ------- null}
h -t 0.0975000000000001 -s 2 -d 3 -p cbr -e 210 -c 0 -i 78 -a 0 -x {2.0 3.1 -1 ------- null}
r -t 0.098918 -s 2 -d 3 -p cbr -e 210 -c 0 -i 65 -a 0 -x {2.0 3.1 21 ------- null}
+ -t 0.10125 -s 2 -d 3 -p cbr -e 210 -c 0 -i 79 -a 0 -x {2.0 3.1 27 ------- null}
- -t 0.10125 -s 2 -d 3 -p cbr -e 210 -c 0 -i 79 -a 0 -x {2.0 3.1 27 ------- null}
h -t 0.10125 -s 2 -d 3 -p cbr -e 210 -c 0 -i 79 -a 0 -x {2.0 3.1 -1 ------- null}
r -t 0.10176 -s 0 -d 3 -p tcp -e 1040 -c 0 -i 66 -a 0 -x {0.0 3.0 3 ------- null}
+ -t 0.10176 -s 3 -d 0 -p ack -e 40 -c 0 -i 80 -a 0 -x {3.0 0.0 3 ------- null}
- -t 0.10176 -s 3 -d 0 -p ack -e 40 -c 0 -i 80 -a 0 -x {3.0 0.0 3 ------- null}
h -t 0.10176 -s 3 -d 0 -p ack -e 40 -c 0 -i 80 -a 0 -x {3.0 0.0 -1 ------- null}
r -t 0.102592 -s 0 -d 3 -p tcp -e 1040 -c 0 -i 67 -a 0 -x {0.0 3.0 4 ------- null}
+ -t 0.102592 -s 3 -d 0 -p ack -e 40 -c 0 -i 81 -a 0 -x {3.0 0.0 4 ------- null}
- -t 0.102592 -s 3 -d 0 -p ack -e 40 -c 0 -i 81 -a 0 -x {3.0 0.0 4 ------- null}
h -t 0.102592 -s 3 -d 0 -p ack -e 40 -c 0 -i 81 -a 0 -x {3.0 0.0 -1 ------- null}
r -t 0.102668 -s 2 -d 3 -p cbr -e 210 -c 0 -i 70 -a 0 -x {2.0 3.1 22 ------- null}
r -t 0.103424 -s 0 -d 3 -p tcp -e 1040 -c 0 -i 68 -a 0 -x {0.0 3.0 5 ------- null}
+ -t 0.103424 -s 3 -d 0 -p ack -e 40 -c 0 -i 82 -a 0 -x {3.0 0.0 5 ------- null}
- -t 0.103424 -s 3 -d 0 -p ack -e 40 -c 0 -i 82 -a 0 -x {3.0 0.0 5 ------- null}
h -t 0.103424 -s 3 -d 0 -p ack -e 40 -c 0 -i 82 -a 0 -x {3.0 0.0 -1 ------- null}
r -t 0.10423733552271 -s 1 -d 0 -p rtProtoLS -e 20 -c 0 -i 71 -a 0 -x {1.1 0.2 -1 ------- null}
r -t 0.10423733552271 -s 2 -d 0 -p rtProtoLS -e 20 -c 0 -i 72 -a 0 -x {2.2 0.2 -1 ------- null}
r -t 0.10423733552271 -s 0 -d 1 -p rtProtoLS -e 20 -c 0 -i 73 -a 0 -x {0.2 1.1 -1 ------- null}
r -t 0.10423733552271 -s 0 -d 2 -p rtProtoLS -e 20 -c 0 -i 74 -a 0 -x {0.2 2.2 -1 ------- null}
r -t 0.104256 -s 0 -d 3 -p tcp -e 1040 -c 0 -i 69 -a 0 -x {0.0 3.0 6 ------- null}