+ 0 0 3 tcp 40 ------- 0 0.0 3.0 0 0
- 0 0 3 tcp 40 ------- 0 0.0 3.0 0 0
+ 0 2 3 cbr 210 ------- 0 2.0 3.1 0 1
- 0 2 3 cbr 210 ------- 0 2.0 3.1 0 1
+ 0.00017 0 1 rtProtoLS 100 ------- 0 0.2 1.1 -1 2
- 0.00017 0 1 rtProtoLS 100 ------- 0 0.2 1.1 -1 2
+ 0.00017 0 2 rtProtoLS 100 ------- 0 0.2 2.2 -1 3
- 0.00017 0 2 rtProtoLS 100 ------- 0 0.2 2.2 -1 3
+ 0.00017 0 3 rtProtoLS 100 ------- 0 0.2 3.3 -1 4
- 0.00017 0 3 rtProtoLS 100 ------- 0 0.2 3.3 -1 4
+ 0.00375 2 3 cbr 210 ------- 0 2.0 3.1 1 5
- 0.00375 2 3 cbr 210 ------- 0 2.0 3.1 1 5
+ 0.007102 2 0 rtProtoLS 100 ------- 0 2.2 0.2 -1 6
- 0.007102 2 0 rtProtoLS 100 ------- 0 2.2 0.2 -1 6
+ 0.007102 2 3 rtProtoLS 100 ------- 0 2.2 3.3 -1 7
- 0.007102 2 3 rtProtoLS 100 ------- 0 2.2 3.3 -1 7
+ 0.0075 2 3 cbr 210 ------- 0 2.0 3.1 2 8
- 0.0075 2 3 cbr 210 ------- 0 2.0 3.1 2 8
+ 0.01125 2 3 cbr 210 ------- 0 2.0 3.1 3 9
- 0.01125 2 3 cbr 210 ------- 0 2.0 3.1 3 9
+ 0.015 2 3 cbr 210 ------- 0 2.0 3.1 4 10
- 0.015 2 3 cbr 210 ------- 0 2.0 3.1 4 10
+ 0.01875 2 3 cbr 210 ------- 0 2.0 3.1 5 11
- 0.01875 2 3 cbr 210 ------- 0 2.0 3.1 5 11
r 0.020032 0 3 tcp 40 ------- 0 0.0 3.0 0 0
+ 0.020032 3 0 ack 40 ------- 0 3.0 0.0 0 12
- 0.020032 3 0 ack 40 ------- 0 3.0 0.0 0 12
r 0.020168 2 3 cbr 210 ------- 0 2.0 3.1 0 1
r 0.02025 0 1 rtProtoLS 100 ------- 0 0.2 1.1 -1 2
+ 0.02025 1 0 rtProtoLS 20 ------- 0 1.1 0.2 -1 13
- 0.02025 1 0 rtProtoLS 20 ------- 0 1.1 0.2 -1 13
+ 0.02025 1 3 rtProtoLS 100 ------- 0 1.1 3.3 -1 14
- 0.02025 1 3 rtProtoLS 100 ------- 0 1.1 3.3 -1 14
r 0.02025 0 2 rtProtoLS 100 ------- 0 0.2 2.2 -1 3
+ 0.02025 2 0 rtProtoLS 20 ------- 0 2.2 0.2 -1 15
- 0.02025 2 0 rtProtoLS 20 ------- 0 2.2 0.2 -1 15
+ 0.02025 2 3 rtProtoLS 100 ------- 0 2.2 3.3 -1 16
- 0.02025 2 3 rtProtoLS 100 ------- 0 2.2 3.3 -1 16
r 0.02025 0 3 rtProtoLS 100 ------- 0 0.2 3.3 -1 4
+ 0.02025 3 0 rtProtoLS 20 ------- 0 3.3 0.2 -1 17
- 0.02025 3 0 rtProtoLS 20 ------- 0 3.3 0.2 -1 17
+ 0.02025 3 1 rtProtoLS 100 ------- 0 3.3 1.1 -1 18
- 0.02025 3 1 rtProtoLS 100 ------- 0 3.3 1.1 -1 18
+ 0.02025 3 2 rtProtoLS 100 ------- 0 3.3 2.2 -1 19
- 0.02025 3 2 rtProtoLS 100 ------- 0 3.3 2.2 -1 19
+ 0.0225 2 3 cbr 210 ------- 0 2.0 3.1 6 20
- 0.0225 2 3 cbr 210 ------- 0 2.0 3.1 6 20
r 0.023918 2 3 cbr 210 ------- 0 2.0 3.1 1 5
+ 0.02625 2 3 cbr 210 ------- 0 2.0 3.1 7 21
- 0.02625 2 3 cbr 210 ------- 0 2.0 3.1 7 21
r 0.027182 2 0 rtProtoLS 100 ------- 0 2.2 0.2 -1 6
+ 0.027182 0 2 rtProtoLS 20 ------- 0 0.2 2.2 -1 22
- 0.027182 0 2 rtProtoLS 20 ------- 0 0.2 2.2 -1 22
+ 0.027182 0 1 rtProtoLS 100 ------- 0 0.2 1.1 -1 23
- 0.027182 0 1 rtProtoLS 100 ------- 0 0.2 1.1 -1 23
+ 0.027182 0 3 rtProtoLS 100 ------- 0 0.2 3.3 -1 24
- 0.027182 0 3 rtProtoLS 100 ------- 0 0.2 3.3 -1 24
r 0.027182 2 3 rtProtoLS 100 ------- 0 2.2 3.3 -1 7
+ 0.027182 3 2 rtProtoLS 20 ------- 0 3.3 2.2 -1 25
- 0.027182 3 2 rtProtoLS 20 ------- 0 3.3 2.2 -1 25
+ 0.027182 3 0 rtProtoLS 100 ------- 0 3.3 0.2 -1 26
- 0.027182 3 0 rtProtoLS 100 ------- 0 3.3 0.2 -1 26
+ 0.027182 3 1 rtProtoLS 100 ------- 0 3.3 1.1 -1 27
- 0.027182 3 1 rtProtoLS 100 ------- 0 3.3 1.1 -1 27
r 0.027668 2 3 cbr 210 ------- 0 2.0 3.1 2 8
+ 0.03 2 3 cbr 210 ------- 0 2.0 3.1 8 28
- 0.03 2 3 cbr 210 ------- 0 2.0 3.1 8 28
r 0.031418 2 3 cbr 210 ------- 0 2.0 3.1 3 9
+ 0.03375 2 3 cbr 210 ------- 0 2.0 3.1 9 29
- 0.03375 2 3 cbr 210 ------- 0 2.0 3.1 9 29
r 0.035168 2 3 cbr 210 ------- 0 2.0 3.1 4 10
+ 0.0375 2 3 cbr 210 ------- 0 2.0 3.1 10 30
- 0.0375 2 3 cbr 210 ------- 0 2.0 3.1 10 30
r 0.038918 2 3 cbr 210 ------- 0 2.0 3.1 5 11
r 0.040064 3 0 ack 40 ------- 0 3.0 0.0 0 12
+ 0.040064 0 3 tcp 1040 ------- 0 0.0 3.0 1 31
- 0.040064 0 3 tcp 1040 ------- 0 0.0 3.0 1 31
+ 0.040064 0 3 tcp 1040 ------- 0 0.0 3.0 2 32
r 0.040266 1 0 rtProtoLS 20 ------- 0 1.1 0.2 -1 13
r 0.040266 2 0 rtProtoLS 20 ------- 0 2.2 0.2 -1 15
r 0.040266 3 0 rtProtoLS 20 ------- 0 3.3 0.2 -1 17
r 0.04033 1 3 rtProtoLS 100 ------- 0 1.1 3.3 -1 14
+ 0.04033 3 1 rtProtoLS 20 ------- 0 3.3 1.1 -1 33
- 0.04033 3 1 rtProtoLS 20 ------- 0 3.3 1.1 -1 33
r 0.04033 2 3 rtProtoLS 100 ------- 0 2.2 3.3 -1 16
+ 0.04033 3 2 rtProtoLS 20 ------- 0 3.3 2.2 -1 34
- 0.04033 3 2 rtProtoLS 20 ------- 0 3.3 2.2 -1 34
r 0.04033 3 1 rtProtoLS 100 ------- 0 3.3 1.1 -1 18
+ 0.04033 1 3 rtProtoLS 20 ------- 0 1.1 3.3 -1 35
- 0.04033 1 3 rtProtoLS 20 ------- 0 1.1 3.3 -1 35
r 0.04033 3 2 rtProtoLS 100 ------- 0 3.3 2.2 -1 19
+ 0.04033 2 3 rtProtoLS 20 ------- 0 2.2 3.3 -1 36
- 0.04033 2 3 rtProtoLS 20 ------- 0 2.2 3.3 -1 36
- 0.040896 0 3 tcp 1040 ------- 0 0.0 3.0 2 32
+ 0.04125 2 3 cbr 210 ------- 0 2.0 3.1 11 37
- 0.04125 2 3 cbr 210 ------- 0 2.0 3.1 11 37
r 0.042668 2 3 cbr 210 ------- 0 2.0 3.1 6 20
+ 0.044061 3 0 rtProtoLS 100 ------- 0 3.3 0.2 -1 38
- 0.044061 3 0 rtProtoLS 100 ------- 0 3.3 0.2 -1 38
+ 0.044061 3 1 rtProtoLS 100 ------- 0 3.3 1.1 -1 39
- 0.044061 3 1 rtProtoLS 100 ------- 0 3.3 1.1 -1 39
+ 0.044061 3 2 rtProtoLS 100 ------- 0 3.3 2.2 -1 40
- 0.044061 3 2 rtProtoLS 100 ------- 0 3.3 2.2 -1 40
+ 0.045 2 3 cbr 210 ------- 0 2.0 3.1 12 41
- 0.045 2 3 cbr 210 ------- 0 2.0 3.1 12 41
r 0.046418 2 3 cbr 210 ------- 0 2.0 3.1 7 21
r 0.047198 0 2 rtProtoLS 20 ------- 0 0.2 2.2 -1 22
r 0.047198 3 2 rtProtoLS 20 ------- 0 3.3 2.2 -1 25
r 0.047262 0 1 rtProtoLS 100 ------- 0 0.2 1.1 -1 23
+ 0.047262 1 0 rtProtoLS 20 ------- 0 1.1 0.2 -1 42
- 0.047262 1 0 rtProtoLS 20 ------- 0 1.1 0.2 -1 42
+ 0.047262 1 3 rtProtoLS 100 ------- 0 1.1 3.3 -1 43
- 0.047262 1 3 rtProtoLS 100 ------- 0 1.1 3.3 -1 43
r 0.047262 0 3 rtProtoLS 100 ------- 0 0.2 3.3 -1 24
+ 0.047262 3 0 rtProtoLS 20 ------- 0 3.3 0.2 -1 44
- 0.047262 3 0 rtProtoLS 20 ------- 0 3.3 0.2 -1 44
r 0.047262 3 0 rtProtoLS 100 ------- 0 3.3 0.2 -1 26
+ 0.047262 0 3 rtProtoLS 20 ------- 0 0.2 3.3 -1 45
- 0.047262 0 3 rtProtoLS 20 ------- 0 0.2 3.3 -1 45
r 0.047262 3 1 rtProtoLS 100 ------- 0 3.3 1.1 -1 27
+ 0.047262 1 3 rtProtoLS 20 ------- 0 1.1 3.3 -1 46
- 0.047342 1 3 rtProtoLS 20 ------- 0 1.1 3.3 -1 46
+ 0.04875 2 3 cbr 210 ------- 0 2.0 3.1 13 47
- 0.04875 2 3 cbr 210 ------- 0 2.0 3.1 13 47
r 0.050168 2 3 cbr 210 ------- 0 2.0 3.1 8 28
+ 0.0525 2 3 cbr 210 ------- 0 2.0 3.1 14 48
- 0.0525 2 3 cbr 210 ------- 0 2.0 3.1 14 48
r 0.053918 2 3 cbr 210 ------- 0 2.0 3.1 9 29
+ 0.05625 2 3 cbr 210 ------- 0 2.0 3.1 15 49
- 0.05625 2 3 cbr 210 ------- 0 2.0 3.1 15 49
r 0.057668 2 3 cbr 210 ------- 0 2.0 3.1 10 30
+ 0.06 2 3 cbr 210 ------- 0 2.0 3.1 16 50
- 0.06 2 3 cbr 210 ------- 0 2.0 3.1 16 50
r 0.060346 3 1 rtProtoLS 20 ------- 0 3.3 1.1 -1 33
r 0.060346 3 2 rtProtoLS 20 ------- 0 3.3 2.2 -1 34
r 0.060346 1 3 rtProtoLS 20 ------- 0 1.1 3.3 -1 35
r 0.060346 2 3 rtProtoLS 20 ------- 0 2.2 3.3 -1 36
r 0.060896 0 3 tcp 1040 ------- 0 0.0 3.0 1 31
+ 0.060896 3 0 ack 40 ------- 0 3.0 0.0 1 51
- 0.060896 3 0 ack 40 ------- 0 3.0 0.0 1 51
r 0.061418 2 3 cbr 210 ------- 0 2.0 3.1 11 37
r 0.061728 0 3 tcp 1040 ------- 0 0.0 3.0 2 32
+ 0.061728 3 0 ack 40 ------- 0 3.0 0.0 2 52
- 0.061728 3 0 ack 40 ------- 0 3.0 0.0 2 52
+ 0.06375 2 3 cbr 210 ------- 0 2.0 3.1 17 53
- 0.06375 2 3 cbr 210 ------- 0 2.0 3.1 17 53
r 0.064141 3 0 rtProtoLS 100 ------- 0 3.3 0.2 -1 38
+ 0.064141 0 3 rtProtoLS 20 ------- 0 0.2 3.3 -1 54
- 0.064141 0 3 rtProtoLS 20 ------- 0 0.2 3.3 -1 54
+ 0.064141 0 1 rtProtoLS 100 ------- 0 0.2 1.1 -1 55
- 0.064141 0 1 rtProtoLS 100 ------- 0 0.2 1.1 -1 55
+ 0.064141 0 2 rtProtoLS 100 ------- 0 0.2 2.2 -1 56
- 0.064141 0 2 rtProtoLS 100 ------- 0 0.2 2.2 -1 56
r 0.064141 3 1 rtProtoLS 100 ------- 0 3.3 1.1 -1 39
+ 0.064141 1 3 rtProtoLS 20 ------- 0 1.1 3.3 -1 57
- 0.064141 1 3 rtProtoLS 20 ------- 0 1.1 3.3 -1 57
+ 0.064141 1 0 rtProtoLS 100 ------- 0 1.1 0.2 -1 58
- 0.064141 1 0 rtProtoLS 100 ------- 0 1.1 0.2 -1 58
r 0.064141 3 2 rtProtoLS 100 ------- 0 3.3 2.2 -1 40
+ 0.064141 2 3 rtProtoLS 20 ------- 0 2.2 3.3 -1 59
- 0.064141 2 3 rtProtoLS 20 ------- 0 2.2 3.3 -1 59
+ 0.064141 2 0 rtProtoLS 100 ------- 0 2.2 0.2 -1 60
- 0.064141 2 0 rtProtoLS 100 ------- 0 2.2 0.2 -1 60
r 0.065168 2 3 cbr 210 ------- 0 2.0 3.1 12 41
r 0.067278 1 0 rtProtoLS 20 ------- 0 1.1 0.2 -1 42
r 0.067278 3 0 rtProtoLS 20 ------- 0 3.3 0.2 -1 44
r 0.067278 0 3 rtProtoLS 20 ------- 0 0.2 3.3 -1 45
r 0.067342 1 3 rtProtoLS 100 ------- 0 1.1 3.3 -1 43
+ 0.067342 3 1 rtProtoLS 20 ------- 0 3.3 1.1 -1 61
- 0.067342 3 1 rtProtoLS 20 ------- 0 3.3 1.1 -1 61
r 0.067358 1 3 rtProtoLS 20 ------- 0 1.1 3.3 -1 46
+ 0.0675 2 3 cbr 210 ------- 0 2.0 3.1 18 62
- 0.0675 2 3 cbr 210 ------- 0 2.0 3.1 18 62
r 0.068918 2 3 cbr 210 ------- 0 2.0 3.1 13 47
+ 0.07125 2 3 cbr 210 ------- 0 2.0 3.1 19 63
- 0.07125 2 3 cbr 210 ------- 0 2.0 3.1 19 63
r 0.072668 2 3 cbr 210 ------- 0 2.0 3.1 14 48
+ 0.075 2 3 cbr 210 ------- 0 2.0 3.1 20 64
- 0.075 2 3 cbr 210 ------- 0 2.0 3.1 20 64
r 0.076418 2 3 cbr 210 ------- 0 2.0 3.1 15 49
+ 0.07875 2 3 cbr 210 ------- 0 2.0 3.1 21 65
- 0.07875 2 3 cbr 210 ------- 0 2.0 3.1 21 65
r 0.080168 2 3 cbr 210 ------- 0 2.0 3.1 16 50
r 0.080928 3 0 ack 40 ------- 0 3.0 0.0 1 51
+ 0.080928 0 3 tcp 1040 ------- 0 0.0 3.0 3 66
- 0.080928 0 3 tcp 1040 ------- 0 0.0 3.0 3 66
+ 0.080928 0 3 tcp 1040 ------- 0 0.0 3.0 4 67
r 0.08176 3 0 ack 40 ------- 0 3.0 0.0 2 52
+ 0.08176 0 3 tcp 1040 ------- 0 0.0 3.0 5 68
+ 0.08176 0 3 tcp 1040 ------- 0 0.0 3.0 6 69
- 0.08176 0 3 tcp 1040 ------- 0 0.0 3.0 4 67
+ 0.0825 2 3 cbr 210 ------- 0 2.0 3.1 22 70
- 0.0825 2 3 cbr 210 ------- 0 2.0 3.1 22 70
- 0.082592 0 3 tcp 1040 ------- 0 0.0 3.0 5 68
- 0.083424 0 3 tcp 1040 ------- 0 0.0 3.0 6 69
r 0.083918 2 3 cbr 210 ------- 0 2.0 3.1 17 53
r 0.084157 0 3 rtProtoLS 20 ------- 0 0.2 3.3 -1 54
r 0.084157 1 3 rtProtoLS 20 ------- 0 1.1 3.3 -1 57
r 0.084157 2 3 rtProtoLS 20 ------- 0 2.2 3.3 -1 59
r 0.084221 0 1 rtProtoLS 100 ------- 0 0.2 1.1 -1 55
+ 0.084221 1 0 rtProtoLS 20 ------- 0 1.1 0.2 -1 71
- 0.084221 1 0 rtProtoLS 20 ------- 0 1.1 0.2 -1 71
r 0.084221 0 2 rtProtoLS 100 ------- 0 0.2 2.2 -1 56
+ 0.084221 2 0 rtProtoLS 20 ------- 0 2.2 0.2 -1 72
- 0.084221 2 0 rtProtoLS 20 ------- 0 2.2 0.2 -1 72
r 0.084221 1 0 rtProtoLS 100 ------- 0 1.1 0.2 -1 58
+ 0.084221 0 1 rtProtoLS 20 ------- 0 0.2 1.1 -1 73
- 0.084221 0 1 rtProtoLS 20 ------- 0 0.2 1.1 -1 73
r 0.084221 2 0 rtProtoLS 100 ------- 0 2.2 0.2 -1 60
+ 0.084221 0 2 rtProtoLS 20 ------- 0 0.2 2.2 -1 74
- 0.084221 0 2 rtProtoLS 20 ------- 0 0.2 2.2 -1 74
+ 0.08625 2 3 cbr 210 ------- 0 2.0 3.1 23 75
- 0.08625 2 3 cbr 210 ------- 0 2.0 3.1 23 75
r 0.087358 3 1 rtProtoLS 20 ------- 0 3.3 1.1 -1 61
r 0.087668 2 3 cbr 210 ------- 0 2.0 3.1 18 62
+ 0.09 2 3 cbr 210 ------- 0 2.0 3.1 24 76
- 0.09 2 3 cbr 210 ------- 0 2.0 3.1 24 76
r 0.091418 2 3 cbr 210 ------- 0 2.0 3.1 19 63
+ 0.09375 2 3 cbr 210 ------- 0 2.0 3.1 25 77
- 0.09375 2 3 cbr 210 ------- 0 2.0 3.1 25 77
r 0.095168 2 3 cbr 210 ------- 0 2.0 3.1 20 64
+ 0.0975 2 3 cbr 210 ------- 0 2.0 3.1 26 78
- 0.0975 2 3 cbr 210 ------- 0 2.0 3.1 26 78
r 0.098918 2 3 cbr 210 ------- 0 2.0 3.1 21 65
+ 0.10125 2 3 cbr 210 ------- 0 2.0 3.1 27 79
- 0.10125 2 3 cbr 210 ------- 0 2.0 3.1 27 79
r 0.10176 0 3 tcp 1040 ------- 0 0.0 3.0 3 66
+ 0.10176 3 0 ack 40 ------- 0 3.0 0.0 3 80
- 0.10176 3 0 ack 40 ------- 0 3.0 0.0 3 80
r 0.102592 0 3 tcp 1040 ------- 0 0.0 3.0 4 67
+ 0.102592 3 0 ack 40 ------- 0 3.0 0.0 4 81
- 0.102592 3 0 ack 40 ------- 0 3.0 0.0 4 81
r 0.102668 2 3 cbr 210 ------- 0 2.0 3.1 22 70
r 0.103424 0 3 tcp 1040 ------- 0 0.0 3.0 5 68
+ 0.103424 3 0 ack 40 ------- 0 3.0 0.0 5 82
- 0.103424 3 0 ack 40 ------- 0 3.0 0.0 5 82
r 0.104237 1 0 rtProtoLS 20 ------- 0 1.1 0.2 -1 71
r 0.104237 2 0 rtProtoLS 20 ------- 0 2.2 0.2 -1 72
r 0.104237 0 1 rtProtoLS 20 ------- 0 0.2 1.1 -1 73
r 0.104237 0 2 rtProtoLS 20 ------- 0 0.2 2.2 -1 74
r 0.104256 0 3 tcp 1040 ------- 0 0.0 3.0 6 69
+ 0.104256 3 0 ack 40 ------- 0 3.0 0.0 6 83
- 0.104256 3 0 ack 40 ------- 0 3.0 0.0 6 83
+ 0.105 2 3 cbr 210 ------- 0 2.0 3.1 28 84
- 0.105 2 3 cbr 210 ------- 0 2.0 3.1 28 84
r 0.106418 2 3 cbr 210 ------- 0 2.0 3.1 23 75
+ 0.10875 2 3 cbr 210 ------- 0 2.0 3.1 29 85
- 0.10875 2 3 cbr 210 ------- 0 2.0 3.1 29 85
r 0.110168 2 3 cbr 210 ------- 0 2.0 3.1 24 76
+ 0.1125 2 3 cbr 210 ------- 0 2.0 3.1 30 86
- 0.1125 2 3 cbr 210 ------- 0 2.0 3.1 30 86
r 0.113918 2 3 cbr 210 ------- 0 2.0 3.1 25 77
+ 0.11625 2 3 cbr 210 ------- 0 2.0 3.1 31 87
- 0.11625 2 3 cbr 210 ------- 0 2.0 3.1 31 87
r 0.117668 2 3 cbr 210 ------- 0 2.0 3.1 26 78
+ 0.12 2 3 cbr 210 ------- 0 2.0 3.1 32 88
- 0.12 2 3 cbr 210 ------- 0 2.0 3.1 32 88
r 0.121418 2 3 cbr 210 ------- 0 2.0 3.1 27 79
r 0.121792 3 0 ack 40 ------- 0 3.0 0.0 3 80
+ 0.121792 0 3 tcp 1040 ------- 0 0.0 3.0 7 89
- 0.121792 0 3 tcp 1040 ------- 0 0.0 3.0 7 89
+ 0.121792 0 3 tcp 1040 ------- 0 0.0 3.0 8 90
r 0.122624 3 0 ack 40 ------- 0 3.0 0.0 4 81
+ 0.122624 0 3 tcp 1040 ------- 0 0.0 3.0 9 91
+ 0.122624 0 3 tcp 1040 ------- 0 0.0 3.0 10 92
- 0.122624 0 3 tcp 1040 ------- 0 0.0 3.0 8 90
r 0.123456 3 0 ack 40 ------- 0 3.0 0.0 5 82
+ 0.123456 0 3 tcp 1040 ------- 0 0.0 3.0 11 93
+ 0.123456 0 3 tcp 1040 ------- 0 0.0 3.0 12 94
- 0.123456 0 3 tcp 1040 ------- 0 0.0 3.0 9 91
+ 0.12375 2 3 cbr 210 ------- 0 2.0 3.1 33 95
- 0.12375 2 3 cbr 210 ------- 0 2.0 3.1 33 95
r 0.124288 3 0 ack 40 ------- 0 3.0 0.0 6 83
+ 0.124288 0 3 tcp 1040 ------- 0 0.0 3.0 13 96
+ 0.124288 0 3 tcp 1040 ------- 0 0.0 3.0 14 97
- 0.124288 0 3 tcp 1040 ------- 0 0.0 3.0 10 92
- 0.12512 0 3 tcp 1040 ------- 0 0.0 3.0 11 93
r 0.125168 2 3 cbr 210 ------- 0 2.0 3.1 28 84
- 0.125952 0 3 tcp 1040 ------- 0 0.0 3.0 12 94
- 0.126784 0 3 tcp 1040 ------- 0 0.0 3.0 13 96
+ 0.1275 2 3 cbr 210 ------- 0 2.0 3.1 34 98
- 0.1275 2 3 cbr 210 ------- 0 2.0 3.1 34 98
- 0.127616 0 3 tcp 1040 ------- 0 0.0 3.0 14 97
r 0.128918 2 3 cbr 210 ------- 0 2.0 3.1 29 85
+ 0.13125 2 3 cbr 210 ------- 0 2.0 3.1 35 99
- 0.13125 2 3 cbr 210 ------- 0 2.0 3.1 35 99
r 0.132668 2 3 cbr 210 ------- 0 2.0 3.1 30 86
+ 0.135 2 3 cbr 210 ------- 0 2.0 3.1 36 100
- 0.135 2 3 cbr 210 ------- 0 2.0 3.1 36 100
r 0.136418 2 3 cbr 210 ------- 0 2.0 3.1 31 87
+ 0.13875 2 3 cbr 210 ------- 0 2.0 3.1 37 101
- 0.13875 2 3 cbr 210 ------- 0 2.0 3.1 37 101
r 0.140168 2 3 cbr 210 ------- 0 2.0 3.1 32 88
+ 0.1425 2 3 cbr 210 ------- 0 2.0 3.1 38 102
- 0.1425 2 3 cbr 210 ------- 0 2.0 3.1 38 102
r 0.142624 0 3 tcp 1040 ------- 0 0.0 3.0 7 89
+ 0.142624 3 0 ack 40 ------- 0 3.0 0.0 7 103
- 0.142624 3 0 ack 40 ------- 0 3.0 0.0 7 103
r 0.143456 0 3 tcp 1040 ------- 0 0.0 3.0 8 90
+ 0.143456 3 0 ack 40 ------- 0 3.0 0.0 8 104
- 0.143456 3 0 ack 40 ------- 0 3.0 0.0 8 104
r 0.143918 2 3 cbr 210 ------- 0 2.0 3.1 33 95
r 0.144288 0 3 tcp 1040 ------- 0 0.0 3.0 9 91
+ 0.144288 3 0 ack 40 ------- 0 3.0 0.0 9 105
- 0.144288 3 0 ack 40 ------- 0 3.0 0.0 9 105
r 0.14512 0 3 tcp 1040 ------- 0 0.0 3.0 10 92
+ 0.14512 3 0 ack 40 ------- 0 3.0 0.0 10 106
- 0.14512 3 0 ack 40 ------- 0 3.0 0.0 10 106
r 0.145952 0 3 tcp 1040 ------- 0 0.0 3.0 11 93
+ 0.145952 3 0 ack 40 ------- 0 3.0 0.0 11 107
- 0.145952 3 0 ack 40 ------- 0 3.0 0.0 11 107
+ 0.14625 2 3 cbr 210 ------- 0 2.0 3.1 39 108
- 0.14625 2 3 cbr 210 ------- 0 2.0 3.1 39 108
r 0.146784 0 3 tcp 1040 ------- 0 0.0 3.0 12 94
+ 0.146784 3 0 ack 40 ------- 0 3.0 0.0 12 109
- 0.146784 3 0 ack 40 ------- 0 3.0 0.0 12 109
r 0.147616 0 3 tcp 1040 ------- 0 0.0 3.0 13 96
+ 0.147616 3 0 ack 40 ------- 0 3.0 0.0 13 110
- 0.147616 3 0 ack 40 ------- 0 3.0 0.0 13 110
r 0.147668 2 3 cbr 210 ------- 0 2.0 3.1 34 98
r 0.148448 0 3 tcp 1040 ------- 0 0.0 3.0 14 97
+ 0.148448 3 0 ack 40 ------- 0 3.0 0.0 14 111
- 0.148448 3 0 ack 40 ------- 0 3.0 0.0 14 111
+ 0.15 2 3 cbr 210 ------- 0 2.0 3.1 40 112
- 0.15 2 3 cbr 210 ------- 0 2.0 3.1 40 112
r 0.151418 2 3 cbr 210 ------- 0 2.0 3.1 35 99
+ 0.15375 2 3 cbr 210 ------- 0 2.0 3.1 41 113
- 0.15375 2 3 cbr 210 ------- 0 2.0 3.1 41 113
r 0.155168 2 3 cbr 210 ------- 0 2.0 3.1 36 100
+ 0.1575 2 3 cbr 210 ------- 0 2.0 3.1 42 114
- 0.1575 2 3 cbr 210 ------- 0 2.0 3.1 42 114
r 0.158918 2 3 cbr 210 ------- 0 2.0 3.1 37 101
+ 0.16125 2 3 cbr 210 ------- 0 2.0 3.1 43 115
- 0.16125 2 3 cbr 210 ------- 0 2.0 3.1 43 115
r 0.162656 3 0 ack 40 ------- 0 3.0 0.0 7 103
+ 0.162656 0 3 tcp 1040 ------- 0 0.0 3.0 15 116
- 0.162656 0 3 tcp 1040 ------- 0 0.0 3.0 15 116
+ 0.162656 0 3 tcp 1040 ------- 0 0.0 3.0 16 117
r 0.162668 2 3 cbr 210 ------- 0 2.0 3.1 38 102
r 0.163488 3 0 ack 40 ------- 0 3.0 0.0 8 104
+ 0.163488 0 3 tcp 1040 ------- 0 0.0 3.0 17 118
+ 0.163488 0 3 tcp 1040 ------- 0 0.0 3.0 18 119
- 0.163488 0 3 tcp 1040 ------- 0 0.0 3.0 16 117
r 0.16432 3 0 ack 40 ------- 0 3.0 0.0 9 105
+ 0.16432 0 3 tcp 1040 ------- 0 0.0 3.0 19 120
+ 0.16432 0 3 tcp 1040 ------- 0 0.0 3.0 20 121
- 0.16432 0 3 tcp 1040 ------- 0 0.0 3.0 17 118
+ 0.165 2 3 cbr 210 ------- 0 2.0 3.1 44 122
- 0.165 2 3 cbr 210 ------- 0 2.0 3.1 44 122
r 0.165152 3 0 ack 40 ------- 0 3.0 0.0 10 106
+ 0.165152 0 3 tcp 1040 ------- 0 0.0 3.0 21 123
+ 0.165152 0 3 tcp 1040 ------- 0 0.0 3.0 22 124
- 0.165152 0 3 tcp 1040 ------- 0 0.0 3.0 18 119
r 0.165984 3 0 ack 40 ------- 0 3.0 0.0 11 107
+ 0.165984 0 3 tcp 1040 ------- 0 0.0 3.0 23 125
+ 0.165984 0 3 tcp 1040 ------- 0 0.0 3.0 24 126
- 0.165984 0 3 tcp 1040 ------- 0 0.0 3.0 19 120
r 0.166418 2 3 cbr 210 ------- 0 2.0 3.1 39 108
r 0.166816 3 0 ack 40 ------- 0 3.0 0.0 12 109
+ 0.166816 0 3 tcp 1040 ------- 0 0.0 3.0 25 127
+ 0.166816 0 3 tcp 1040 ------- 0 0.0 3.0 26 128
- 0.166816 0 3 tcp 1040 ------- 0 0.0 3.0 20 121
r 0.167648 3 0 ack 40 ------- 0 3.0 0.0 13 110
+ 0.167648 0 3 tcp 1040 ------- 0 0.0 3.0 27 129
+ 0.167648 0 3 tcp 1040 ------- 0 0.0 3.0 28 130
- 0.167648 0 3 tcp 1040 ------- 0 0.0 3.0 21 123
r 0.16848 3 0 ack 40 ------- 0 3.0 0.0 14 111
+ 0.16848 0 3 tcp 1040 ------- 0 0.0 3.0 29 131
+ 0.16848 0 3 tcp 1040 ------- 0 0.0 3.0 30 132
- 0.16848 0 3 tcp 1040 ------- 0 0.0 3.0 22 124
+ 0.16875 2 3 cbr 210 ------- 0 2.0 3.1 45 133
- 0.16875 2 3 cbr 210 ------- 0 2.0 3.1 45 133
- 0.169312 0 3 tcp 1040 ------- 0 0.0 3.0 23 125
- 0.170144 0 3 tcp 1040 ------- 0 0.0 3.0 24 126
r 0.170168 2 3 cbr 210 ------- 0 2.0 3.1 40 112
- 0.170976 0 3 tcp 1040 ------- 0 0.0 3.0 25 127
- 0.171808 0 3 tcp 1040 ------- 0 0.0 3.0 26 128
+ 0.1725 2 3 cbr 210 ------- 0 2.0 3.1 46 134
- 0.1725 2 3 cbr 210 ------- 0 2.0 3.1 46 134
- 0.17264 0 3 tcp 1040 ------- 0 0.0 3.0 27 129
- 0.173472 0 3 tcp 1040 ------- 0 0.0 3.0 28 130
r 0.173918 2 3 cbr 210 ------- 0 2.0 3.1 41 113
- 0.174304 0 3 tcp 1040 ------- 0 0.0 3.0 29 131
- 0.175136 0 3 tcp 1040 ------- 0 0.0 3.0 30 132
+ 0.17625 2 3 cbr 210 ------- 0 2.0 3.1 47 135
- 0.17625 2 3 cbr 210 ------- 0 2.0 3.1 47 135
r 0.177668 2 3 cbr 210 ------- 0 2.0 3.1 42 114
+ 0.18 2 3 cbr 210 ------- 0 2.0 3.1 48 136
- 0.18 2 3 cbr 210 ------- 0 2.0 3.1 48 136
r 0.181418 2 3 cbr 210 ------- 0 2.0 3.1 43 115
r 0.183488 0 3 tcp 1040 ------- 0 0.0 3.0 15 116
+ 0.183488 3 0 ack 40 ------- 0 3.0 0.0 15 137
- 0.183488 3 0 ack 40 ------- 0 3.0 0.0 15 137
+ 0.18375 2 3 cbr 210 ------- 0 2.0 3.1 49 138
- 0.18375 2 3 cbr 210 ------- 0 2.0 3.1 49 138
r 0.18432 0 3 tcp 1040 ------- 0 0.0 3.0 16 117
+ 0.18432 3 0 ack 40 ------- 0 3.0 0.0 16 139
- 0.18432 3 0 ack 40 ------- 0 3.0 0.0 16 139
r 0.185152 0 3 tcp 1040 ------- 0 0.0 3.0 17 118
+ 0.185152 3 0 ack 40 ------- 0 3.0 0.0 17 140
- 0.185152 3 0 ack 40 ------- 0 3.0 0.0 17 140
r 0.185168 2 3 cbr 210 ------- 0 2.0 3.1 44 122
r 0.185984 0 3 tcp 1040 ------- 0 0.0 3.0 18 119
+ 0.185984 3 0 ack 40 ------- 0 3.0 0.0 18 141
- 0.185984 3 0 ack 40 ------- 0 3.0 0.0 18 141
r 0.186816 0 3 tcp 1040 ------- 0 0.0 3.0 19 120
+ 0.186816 3 0 ack 40 ------- 0 3.0 0.0 19 142
- 0.186816 3 0 ack 40 ------- 0 3.0 0.0 19 142
+ 0.1875 2 3 cbr 210 ------- 0 2.0 3.1 50 143
- 0.1875 2 3 cbr 210 ------- 0 2.0 3.1 50 143
r 0.187648 0 3 tcp 1040 ------- 0 0.0 3.0 20 121
+ 0.187648 3 0 ack 40 ------- 0 3.0 0.0 20 144
- 0.187648 3 0 ack 40 ------- 0 3.0 0.0 20 144
r 0.18848 0 3 tcp 1040 ------- 0 0.0 3.0 21 123
+ 0.18848 3 0 ack 40 ------- 0 3.0 0.0 21 145
- 0.18848 3 0 ack 40 ------- 0 3.0 0.0 21 145
r 0.188918 2 3 cbr 210 ------- 0 2.0 3.1 45 133
r 0.189312 0 3 tcp 1040 ------- 0 0.0 3.0 22 124
+ 0.189312 3 0 ack 40 ------- 0 3.0 0.0 22 146
- 0.189312 3 0 ack 40 ------- 0 3.0 0.0 22 146
r 0.190144 0 3 tcp 1040 ------- 0 0.0 3.0 23 125
+ 0.190144 3 0 ack 40 ------- 0 3.0 0.0 23 147
- 0.190144 3 0 ack 40 ------- 0 3.0 0.0 23 147
r 0.190976 0 3 tcp 1040 ------- 0 0.0 3.0 24 126
+ 0.190976 3 0 ack 40 ------- 0 3.0 0.0 24 148
- 0.190976 3 0 ack 40 ------- 0 3.0 0.0 24 148
+ 0.19125 2 3 cbr 210 ------- 0 2.0 3.1 51 149
- 0.19125 2 3 cbr 210 ------- 0 2.0 3.1 51 149
r 0.191808 0 3 tcp 1040 ------- 0 0.0 3.0 25 127
+ 0.191808 3 0 ack 40 ------- 0 3.0 0.0 25 150
- 0.191808 3 0 ack 40 ------- 0 3.0 0.0 25 150
r 0.19264 0 3 tcp 1040 ------- 0 0.0 3.0 26 128
+ 0.19264 3 0 ack 40 ------- 0 3.0 0.0 26 151
- 0.19264 3 0 ack 40 ------- 0 3.0 0.0 26 151
r 0.192668 2 3 cbr 210 ------- 0 2.0 3.1 46 134
r 0.193472 0 3 tcp 1040 ------- 0 0.0 3.0 27 129
+ 0.193472 3 0 ack 40 ------- 0 3.0 0.0 27 152
- 0.193472 3 0 ack 40 ------- 0 3.0 0.0 27 152
r 0.194304 0 3 tcp 1040 ------- 0 0.0 3.0 28 130
+ 0.194304 3 0 ack 40 ------- 0 3.0 0.0 28 153
- 0.194304 3 0 ack 40 ------- 0 3.0 0.0 28 153
+ 0.195 2 3 cbr 210 ------- 0 2.0 3.1 52 154
- 0.195 2 3 cbr 210 ------- 0 2.0 3.1 52 154
r 0.195136 0 3 tcp 1040 ------- 0 0.0 3.0 29 131
+ 0.195136 3 0 ack 40 ------- 0 3.0 0.0 29 155
- 0.195136 3 0 ack 40 ------- 0 3.0 0.0 29 155
r 0.195968 0 3 tcp 1040 ------- 0 0.0 3.0 30 132
+ 0.195968 3 0 ack 40 ------- 0 3.0 0.0 30 156
- 0.195968 3 0 ack 40 ------- 0 3.0 0.0 30 156
r 0.196418 2 3 cbr 210 ------- 0 2.0 3.1 47 135
+ 0.19875 2 3 cbr 210 ------- 0 2.0 3.1 53 157
- 0.19875 2 3 cbr 210 ------- 0 2.0 3.1 53 157
r 0.200168 2 3 cbr 210 ------- 0 2.0 3.1 48 136
+ 0.2025 2 3 cbr 210 ------- 0 2.0 3.1 54 158
- 0.2025 2 3 cbr 210 ------- 0 2.0 3.1 54 158
r 0.20352 3 0 ack 40 ------- 0 3.0 0.0 15 137
+ 0.20352 0 3 tcp 1040 ------- 0 0.0 3.0 31 159
- 0.20352 0 3 tcp 1040 ------- 0 0.0 3.0 31 159
+ 0.20352 0 3 tcp 1040 ------- 0 0.0 3.0 32 160
r 0.203918 2 3 cbr 210 ------- 0 2.0 3.1 49 138
r 0.204352 3 0 ack 40 ------- 0 3.0 0.0 16 139
+ 0.204352 0 3 tcp 1040 ------- 0 0.0 3.0 33 161
+ 0.204352 0 3 tcp 1040 ------- 0 0.0 3.0 34 162
- 0.204352 0 3 tcp 1040 ------- 0 0.0 3.0 32 160
r 0.205184 3 0 ack 40 ------- 0 3.0 0.0 17 140
+ 0.205184 0 3 tcp 1040 ------- 0 0.0 3.0 35 163
+ 0.205184 0 3 tcp 1040 ------- 0 0.0 3.0 36 164
- 0.205184 0 3 tcp 1040 ------- 0 0.0 3.0 33 161
r 0.206016 3 0 ack 40 ------- 0 3.0 0.0 18 141
+ 0.206016 0 3 tcp 1040 ------- 0 0.0 3.0 37 165
+ 0.206016 0 3 tcp 1040 ------- 0 0.0 3.0 38 166
- 0.206016 0 3 tcp 1040 ------- 0 0.0 3.0 34 162
+ 0.20625 2 3 cbr 210 ------- 0 2.0 3.1 55 167
- 0.20625 2 3 cbr 210 ------- 0 2.0 3.1 55 167
r 0.206848 3 0 ack 40 ------- 0 3.0 0.0 19 142
+ 0.206848 0 3 tcp 1040 ------- 0 0.0 3.0 39 168
- 0.206848 0 3 tcp 1040 ------- 0 0.0 3.0 35 163
r 0.207668 2 3 cbr 210 ------- 0 2.0 3.1 50 143
r 0.20768 3 0 ack 40 ------- 0 3.0 0.0 20 144
+ 0.20768 0 3 tcp 1040 ------- 0 0.0 3.0 40 169
- 0.20768 0 3 tcp 1040 ------- 0 0.0 3.0 36 164
r 0.208512 3 0 ack 40 ------- 0 3.0 0.0 21 145
+ 0.208512 0 3 tcp 1040 ------- 0 0.0 3.0 41 170
- 0.208512 0 3 tcp 1040 ------- 0 0.0 3.0 37 165
r 0.209344 3 0 ack 40 ------- 0 3.0 0.0 22 146
+ 0.209344 0 3 tcp 1040 ------- 0 0.0 3.0 42 171
- 0.209344 0 3 tcp 1040 ------- 0 0.0 3.0 38 166
+ 0.21 2 3 cbr 210 ------- 0 2.0 3.1 56 172
- 0.21 2 3 cbr 210 ------- 0 2.0 3.1 56 172
r 0.210176 3 0 ack 40 ------- 0 3.0 0.0 23 147
+ 0.210176 0 3 tcp 1040 ------- 0 0.0 3.0 43 173
- 0.210176 0 3 tcp 1040 ------- 0 0.0 3.0 39 168
r 0.211008 3 0 ack 40 ------- 0 3.0 0.0 24 148
+ 0.211008 0 3 tcp 1040 ------- 0 0.0 3.0 44 174
- 0.211008 0 3 tcp 1040 ------- 0 0.0 3.0 40 169
r 0.211418 2 3 cbr 210 ------- 0 2.0 3.1 51 149
r 0.21184 3 0 ack 40 ------- 0 3.0 0.0 25 150
+ 0.21184 0 3 tcp 1040 ------- 0 0.0 3.0 45 175
- 0.21184 0 3 tcp 1040 ------- 0 0.0 3.0 41 170
r 0.212672 3 0 ack 40 ------- 0 3.0 0.0 26 151
+ 0.212672 0 3 tcp 1040 ------- 0 0.0 3.0 46 176
- 0.212672 0 3 tcp 1040 ------- 0 0.0 3.0 42 171
r 0.213504 3 0 ack 40 ------- 0 3.0 0.0 27 152
+ 0.213504 0 3 tcp 1040 ------- 0 0.0 3.0 47 177
- 0.213504 0 3 tcp 1040 ------- 0 0.0 3.0 43 173
+ 0.21375 2 3 cbr 210 ------- 0 2.0 3.1 57 178
- 0.21375 2 3 cbr 210 ------- 0 2.0 3.1 57 178
r 0.214336 3 0 ack 40 ------- 0 3.0 0.0 28 153
+ 0.214336 0 3 tcp 1040 ------- 0 0.0 3.0 48 179
- 0.214336 0 3 tcp 1040 ------- 0 0.0 3.0 44 174
r 0.215168 3 0 ack 40 ------- 0 3.0 0.0 29 155
+ 0.215168 0 3 tcp 1040 ------- 0 0.0 3.0 49 180
- 0.215168 0 3 tcp 1040 ------- 0 0.0 3.0 45 175
r 0.215168 2 3 cbr 210 ------- 0 2.0 3.1 52 154
r 0.216 3 0 ack 40 ------- 0 3.0 0.0 30 156
+ 0.216 0 3 tcp 1040 ------- 0 0.0 3.0 50 181
- 0.216 0 3 tcp 1040 ------- 0 0.0 3.0 46 176
- 0.216832 0 3 tcp 1040 ------- 0 0.0 3.0 47 177
+ 0.2175 2 3 cbr 210 ------- 0 2.0 3.1 58 182
- 0.2175 2 3 cbr 210 ------- 0 2.0 3.1 58 182
- 0.217664 0 3 tcp 1040 ------- 0 0.0 3.0 48 179
- 0.218496 0 3 tcp 1040 ------- 0 0.0 3.0 49 180
r 0.218918 2 3 cbr 210 ------- 0 2.0 3.1 53 157
- 0.219328 0 3 tcp 1040 ------- 0 0.0 3.0 50 181
+ 0.22125 2 3 cbr 210 ------- 0 2.0 3.1 59 183
- 0.22125 2 3 cbr 210 ------- 0 2.0 3.1 59 183
r 0.222668 2 3 cbr 210 ------- 0 2.0 3.1 54 158
r 0.224352 0 3 tcp 1040 ------- 0 0.0 3.0 31 159
+ 0.224352 3 0 ack 40 ------- 0 3.0 0.0 31 184
- 0.224352 3 0 ack 40 ------- 0 3.0 0.0 31 184
+ 0.225 2 3 cbr 210 ------- 0 2.0 3.1 60 185
- 0.225 2 3 cbr 210 ------- 0 2.0 3.1 60 185
r 0.225184 0 3 tcp 1040 ------- 0 0.0 3.0 32 160
+ 0.225184 3 0 ack 40 ------- 0 3.0 0.0 32 186
- 0.225184 3 0 ack 40 ------- 0 3.0 0.0 32 186
r 0.226016 0 3 tcp 1040 ------- 0 0.0 3.0 33 161
+ 0.226016 3 0 ack 40 ------- 0 3.0 0.0 33 187
- 0.226016 3 0 ack 40 ------- 0 3.0 0.0 33 187
r 0.226418 2 3 cbr 210 ------- 0 2.0 3.1 55 167
r 0.226848 0 3 tcp 1040 ------- 0 0.0 3.0 34 162
+ 0.226848 3 0 ack 40 ------- 0 3.0 0.0 34 188
- 0.226848 3 0 ack 40 ------- 0 3.0 0.0 34 188
r 0.22768 0 3 tcp 1040 ------- 0 0.0 3.0 35 163
+ 0.22768 3 0 ack 40 ------- 0 3.0 0.0 35 189
- 0.22768 3 0 ack 40 ------- 0 3.0 0.0 35 189
r 0.228512 0 3 tcp 1040 ------- 0 0.0 3.0 36 164
+ 0.228512 3 0 ack 40 ------- 0 3.0 0.0 36 190
- 0.228512 3 0 ack 40 ------- 0 3.0 0.0 36 190
+ 0.22875 2 3 cbr 210 ------- 0 2.0 3.1 61 191
- 0.22875 2 3 cbr 210 ------- 0 2.0 3.1 61 191
r 0.229344 0 3 tcp 1040 ------- 0 0.0 3.0 37 165
+ 0.229344 3 0 ack 40 ------- 0 3.0 0.0 37 192
- 0.229344 3 0 ack 40 ------- 0 3.0 0.0 37 192
r 0.230168 2 3 cbr 210 ------- 0 2.0 3.1 56 172
r 0.230176 0 3 tcp 1040 ------- 0 0.0 3.0 38 166
+ 0.230176 3 0 ack 40 ------- 0 3.0 0.0 38 193
- 0.230176 3 0 ack 40 ------- 0 3.0 0.0 38 193
r 0.231008 0 3 tcp 1040 ------- 0 0.0 3.0 39 168
+ 0.231008 3 0 ack 40 ------- 0 3.0 0.0 39 194
- 0.231008 3 0 ack 40 ------- 0 3.0 0.0 39 194
r 0.23184 0 3 tcp 1040 ------- 0 0.0 3.0 40 169
+ 0.23184 3 0 ack 40 ------- 0 3.0 0.0 40 195
- 0.23184 3 0 ack 40 ------- 0 3.0 0.0 40 195
+ 0.2325 2 3 cbr 210 ------- 0 2.0 3.1 62 196
- 0.2325 2 3 cbr 210 ------- 0 2.0 3.1 62 196
r 0.232672 0 3 tcp 1040 ------- 0 0.0 3.0 41 170
+ 0.232672 3 0 ack 40 ------- 0 3.0 0.0 41 197
- 0.232672 3 0 ack 40 ------- 0 3.0 0.0 41 197
r 0.233504 0 3 tcp 1040 ------- 0 0.0 3.0 42 171
+ 0.233504 3 0 ack 40 ------- 0 3.0 0.0 42 198
- 0.233504 3 0 ack 40 ------- 0 3.0 0.0 42 198
r 0.233918 2 3 cbr 210 ------- 0 2.0 3.1 57 178
r 0.234336 0 3 tcp 1040 ------- 0 0.0 3.0 43 173
+ 0.234336 3 0 ack 40 ------- 0 3.0 0.0 43 199
- 0.234336 3 0 ack 40 ------- 0 3.0 0.0 43 199
r 0.235168 0 3 tcp 1040 ------- 0 0.0 3.0 44 174
+ 0.235168 3 0 ack 40 ------- 0 3.0 0.0 44 200
- 0.235168 3 0 ack 40 ------- 0 3.0 0.0 44 200
r 0.236 0 3 tcp 1040 ------- 0 0.0 3.0 45 175
+ 0.236 3 0 ack 40 ------- 0 3.0 0.0 45 201
- 0.236 3 0 ack 40 ------- 0 3.0 0.0 45 201
+ 0.23625 2 3 cbr 210 ------- 0 2.0 3.1 63 202
- 0.23625 2 3 cbr 210 ------- 0 2.0 3.1 63 202
r 0.236832 0 3 tcp 1040 ------- 0 0.0 3.0 46 176
+ 0.236832 3 0 ack 40 ------- 0 3.0 0.0 46 203
- 0.236832 3 0 ack 40 ------- 0 3.0 0.0 46 203
r 0.237664 0 3 tcp 1040 ------- 0 0.0 3.0 47 177
+ 0.237664 3 0 ack 40 ------- 0 3.0 0.0 47 204
- 0.237664 3 0 ack 40 ------- 0 3.0 0.0 47 204
r 0.237668 2 3 cbr 210 ------- 0 2.0 3.1 58 182
r 0.238496 0 3 tcp 1040 ------- 0 0.0 3.0 48 179
+ 0.238496 3 0 ack 40 ------- 0 3.0 0.0 48 205
- 0.238496 3 0 ack 40 ------- 0 3.0 0.0 48 205
r 0.239328 0 3 tcp 1040 ------- 0 0.0 3.0 49 180
+ 0.239328 3 0 ack 40 ------- 0 3.0 0.0 49 206
- 0.239328 3 0 ack 40 ------- 0 3.0 0.0 49 206
+ 0.24 2 3 cbr 210 ------- 0 2.0 3.1 64 207
- 0.24 2 3 cbr 210 ------- 0 2.0 3.1 64 207
r 0.24016 0 3 tcp 1040 ------- 0 0.0 3.0 50 181
+ 0.24016 3 0 ack 40 ------- 0 3.0 0.0 50 208
- 0.24016 3 0 ack 40 ------- 0 3.0 0.0 50 208
r 0.241418 2 3 cbr 210 ------- 0 2.0 3.1 59 183
+ 0.24375 2 3 cbr 210 ------- 0 2.0 3.1 65 209
- 0.24375 2 3 cbr 210 ------- 0 2.0 3.1 65 209
r 0.244384 3 0 ack 40 ------- 0 3.0 0.0 31 184
+ 0.244384 0 3 tcp 1040 ------- 0 0.0 3.0 51 210
- 0.244384 0 3 tcp 1040 ------- 0 0.0 3.0 51 210
r 0.245168 2 3 cbr 210 ------- 0 2.0 3.1 60 185
r 0.245216 3 0 ack 40 ------- 0 3.0 0.0 32 186
+ 0.245216 0 3 tcp 1040 ------- 0 0.0 3.0 52 211
- 0.245216 0 3 tcp 1040 ------- 0 0.0 3.0 52 211
r 0.246048 3 0 ack 40 ------- 0 3.0 0.0 33 187
+ 0.246048 0 3 tcp 1040 ------- 0 0.0 3.0 53 212
- 0.246048 0 3 tcp 1040 ------- 0 0.0 3.0 53 212
r 0.24688 3 0 ack 40 ------- 0 3.0 0.0 34 188
+ 0.24688 0 3 tcp 1040 ------- 0 0.0 3.0 54 213
- 0.24688 0 3 tcp 1040 ------- 0 0.0 3.0 54 213
+ 0.2475 2 3 cbr 210 ------- 0 2.0 3.1 66 214
- 0.2475 2 3 cbr 210 ------- 0 2.0 3.1 66 214
r 0.247712 3 0 ack 40 ------- 0 3.0 0.0 35 189
+ 0.247712 0 3 tcp 1040 ------- 0 0.0 3.0 55 215
- 0.247712 0 3 tcp 1040 ------- 0 0.0 3.0 55 215
r 0.248544 3 0 ack 40 ------- 0 3.0 0.0 36 190
+ 0.248544 0 3 tcp 1040 ------- 0 0.0 3.0 56 216
- 0.248544 0 3 tcp 1040 ------- 0 0.0 3.0 56 216
r 0.248918 2 3 cbr 210 ------- 0 2.0 3.1 61 191